ITEM: TIMESTEP
20200
ITEM: NUMBER OF ATOMS
4000
ITEM: BOX BOUNDS pp pp pp
0.0000000000000000e+00 1.6795961913825074e+01
0.0000000000000000e+00 1.6795961913825074e+01
0.0000000000000000e+00 1.6795961913825074e+01
ITEM: ATOMS id type xs ys zs
1 1 0.997342 0.989149 0.000170316
2 1 0.0393793 0.0454943 0.0136918
3 1 0.0435907 0.99137 0.0464995
4 1 0.992673 0.0444932 0.0596162
5 1 0.0993965 0.999732 0.998502
6 1 0.143083 0.0489534 0.995968
7 1 0.137796 0.996747 0.0506058
8 1 0.0951679 0.0522842 0.056848
9 1 0.202528 0.997049 0.996631
10 1 0.250446 0.0365156 0.998811
11 1 0.234951 0.994585 0.0601756
12 1 0.192321 0.0440507 0.0459921
13 1 0.293788 0.988646 -0.00409012
14 1 0.353369 0.0503518 0.00651295
15 1 0.350644 0.994295 0.0473909
16 1 0.292889 0.0425073 0.0463074
17 1 0.39651 0.998215 0.998192
18 1 0.442601 0.0454604 1.00202
19 1 0.456171 0.989312 0.0428939
20 1 0.402279 0.0466816 0.0596588
21 1 0.498767 0.994292 0.998178
22 1 0.540945 0.0463494 0.000321641
23 1 0.542811 0.995253 0.0457848
24 1 0.489714 0.0439976 0.0467888
25 1 0.587885 0.990739 -0.00252175
26 1 0.64647 0.0461079 0.984187
27 1 0.64985 0.995106 0.0450492
28 1 0.594354 0.0408067 0.0404798
29 1 0.706728 0.99311 0.988455
30 1 0.7537 0.0518489 0.997622
31 1 0.737368 0.997879 0.0440668
32 1 0.700214 0.0439245 0.046452
33 1 0.792009 0.996091 0.0109702
34 1 0.858331 0.0510132 0.997764
35 1 0.843044 1.00169 0.0482425
36 1 0.804958 0.0511065 0.0439907
37 1 0.890241 0.988515 0.996519
38 1 0.932989 0.0373843 1.00005
39 1 0.946672 0.984625 0.0428163
40 1 0.897468 0.0433996 0.0511815
41 1 0.989883 0.0899244 0.00765458
42 1 0.0562438 0.146341 0.996935
43 1 0.0439166 0.084694 0.066238
44 1 0.011281 0.147016 0.0454555
45 1 0.0989466 0.0959814 0.00345055
46 1 0.148334 0.144471 0.00166532
47 1 0.145644 0.0898716 0.0507675
48 1 0.0852 0.134615 0.0538658
49 1 0.201789 0.09359 0.00561062
50 1 0.248208 0.147509 0.00385023
51 1 0.246464 0.0990115 0.0582463
52 1 0.185568 0.143596 0.0518506
53 1 0.298888 0.0903287 0.00327698
54 1 0.348865 0.138993 0.999648
55 1 0.353577 0.0910725 0.0561856
56 1 0.302448 0.14036 0.0516453
57 1 0.39841 0.103891 0.997514
58 1 0.451172 0.144612 0.998964
59 1 0.447218 0.0925315 0.04587
60 1 0.404747 0.14318 0.053181
61 1 0.49692 0.0936484 1.00036
62 1 0.546474 0.147381 0.989484
63 1 0.551889 0.0921604 0.0429466
64 1 0.496879 0.140125 0.0468497
65 1 0.600995 0.0943611 0.981538
66 1 0.646267 0.142166 0.0023807
67 1 0.639555 0.0886306 0.036556
68 1 0.600771 0.13713 0.0494307
69 1 0.697813 0.09822 0.998601
70 1 0.751739 0.152466 0.00410404
71 1 0.74985 0.0833084 0.051448
72 1 0.693624 0.138632 0.0457694
73 1 0.799809 0.107544 0.00730098
74 1 0.848465 0.151447 0.0148254
75 1 0.852256 0.0955145 0.0523078
76 1 0.797744 0.144713 0.0619639
77 1 0.900184 0.101717 0.999236
78 1 0.959791 0.14788 0.0136092
79 1 0.946542 0.0909963 0.0612841
80 1 0.903936 0.145999 0.0658621
81 1 0.00322438 0.194366 0.00401309
82 1 0.0407533 0.245988 0.995846
83 1 0.0422151 0.198803 0.0535889
84 1 0.00701749 0.248186 0.0553871
85 1 0.0922137 0.199259 -0.000690034
86 1 0.15528 0.242031 0.00720405
87 1 0.138833 0.195564 0.0442721
88 1 0.0932783 0.24384 0.055132
89 1 0.197665 0.191572 0.00150506
90 1 0.238978 0.241054 0.00654519
91 1 0.243573 0.189376 0.0574156
92 1 0.194505 0.238797 0.0599779
93 1 0.292279 0.196366 0.019897
94 1 0.353164 0.252793 0.00273507
95 1 0.352114 0.188805 0.0409599
96 1 0.298551 0.250385 0.0537599
97 1 0.3996 0.2077 0.00676436
98 1 0.44937 0.244952 0.986727
99 1 0.450136 0.193158 0.0579824
100 1 0.38553 0.241913 0.0569488
101 1 0.489624 0.195754 0.00291014
102 1 0.545867 0.255838 1.00007
103 1 0.551224 0.188869 0.0423117
104 1 0.506615 0.245489 0.046751
105 1 0.598632 0.199689 0.003682
106 1 0.650422 0.242786 0.994985
107 1 0.640883 0.187374 0.0533628
108 1 0.598066 0.248771 0.0503559
109 1 0.690652 0.190126 0.00714812
110 1 0.735197 0.235631 0.0110272
111 1 0.746652 0.192326 0.0568035
112 1 0.689764 0.241395 0.054636
113 1 0.798857 0.194195 0.011309
114 1 0.85139 0.235313 0.0134144
115 1 0.860549 0.198712 0.0601913
116 1 0.79999 0.239168 0.0581175
117 1 0.923301 0.20125 0.0128165
118 1 0.964931 0.243584 0.00548882
119 1 0.96388 0.193892 0.0607723
120 1 0.906068 0.251917 0.0519232
121 1 0.996797 0.296034 0.000877253
122 1 0.0420832 0.355336 0.994288
123 1 0.0577979 0.296623 0.042314
124 1 0.994403 0.34844 0.05786
125 1 0.094562 0.300942 0.987755
126 1 0.155997 0.349959 1.00015
127 1 0.143748 0.291624 0.0500704
128 1 0.107319 0.347401 0.0566189
129 1 0.195497 0.290246 0.00233024
130 1 0.2419 0.353579 0.0108292
131 1 0.245524 0.289804 0.0501806
132 1 0.193996 0.33324 0.0522388
133 1 0.289196 0.298695 0.00610061
134 1 0.345523 0.34222 0.0042897
135 1 0.331754 0.300957 0.0531459
136 1 0.284606 0.345673 0.0552498
137 1 0.402618 0.305458 0.991223
138 1 0.443602 0.351812 0.99622
139 1 0.428419 0.297931 0.0512492
140 1 0.383742 0.341365 0.0493051
141 1 0.494889 0.30703 0.000645878
142 1 0.54118 0.354023 0.00210748
143 1 0.539082 0.298665 0.0521946
144 1 0.481934 0.346833 0.0518075
145 1 0.598376 0.297917 0.00436568
146 1 0.652504 0.34432 0.997528
147 1 0.647293 0.290834 0.0478133
148 1 0.598148 0.348768 0.0488345
149 1 0.696505 0.290198 0.00348287
150 1 0.742966 0.342918 0.000803393
151 1 0.745088 0.292401 0.0447116
152 1 0.697666 0.331721 0.0603596
153 1 0.801395 0.287552 0.0128986
154 1 0.841084 0.3447 0.00235517
155 1 0.850995 0.281403 0.0690794
156 1 0.798373 0.337246 0.0511967
157 1 0.911203 0.306955 0.0114424
158 1 0.963854 0.35721 0.00531986
159 1 0.958721 0.295537 0.055353
160 1 0.900373 0.356004 0.0523167
161 1 0.000114092 0.407703 0.99875
162 1 0.0474417 0.457799 0.997533
163 1 0.0484443 0.405403 0.0398151
164 1 0.995793 0.45162 0.0514319
165 1 0.10067 0.401311 0.999067
166 1 0.141181 0.453752 0.994385
167 1 0.144412 0.402191 0.0606935
168 1 0.0925978 0.453203 0.0466276
169 1 0.18757 0.4042 0.0147163
170 1 0.234616 0.447437 0.00371543
171 1 0.227545 0.396274 0.0625038
172 1 0.188072 0.446861 0.0599031
173 1 0.293941 0.395526 0.00680525
174 1 0.345695 0.435937 0.0175332
175 1 0.334135 0.389553 0.0591742
176 1 0.296664 0.449866 0.0580431
177 1 0.395619 0.397015 0.00788347
178 1 0.447398 0.438588 0.995763
179 1 0.440375 0.395745 0.0487787
180 1 0.395073 0.447502 0.0598979
181 1 0.489698 0.394327 0.00724903
182 1 0.542766 0.432775 0.000820002
183 1 0.536677 0.395504 0.0526398
184 1 0.501864 0.443962 0.0531761
185 1 0.603838 0.387119 0.991635
186 1 0.653696 0.435911 0.996129
187 1 0.651522 0.387141 0.0398635
188 1 0.603027 0.429739 0.0370167
189 1 0.70549 0.390344 0.991254
190 1 0.74238 0.444794 0.00269232
191 1 0.748705 0.396681 0.0441324
192 1 0.699297 0.453898 0.0473991
193 1 0.798502 0.392866 -0.00279474
194 1 0.853232 0.44595 0.00378186
195 1 0.84548 0.401144 0.0438496
196 1 0.798179 0.451365 0.0419949
197 1 0.906417 0.404276 0.0109482
198 1 0.953913 0.451576 0.00106445
199 1 0.95521 0.406036 0.0522979
200 1 0.904262 0.464133 0.0433905
201 1 0.00503457 0.506372 0.000511408
202 1 0.0442778 0.548161 0.00318536
203 1 0.0452394 0.503778 0.053241
204 1 0.003904 0.558694 0.0556
205 1 0.0999798 0.506849 0.00354593
206 1 0.147277 0.557597 0.00599202
207 1 0.147492 0.493718 0.0526211
208 1 0.0952565 0.555066 0.0508437
209 1 0.186126 0.50276 0.989908
210 1 0.24202 0.545634 0.994389
211 1 0.246726 0.499058 0.0535761
212 1 0.195926 0.545959 0.0493834
213 1 0.3038 0.497531 0.0109801
214 1 0.360109 0.532616 0.0262946
215 1 0.344517 0.49217 0.0666088
216 1 0.297862 0.542346 0.0654368
217 1 0.407472 0.492301 0.00834215
218 1 0.452637 0.544139 0.00401556
219 1 0.452221 0.493644 0.0553907
220 1 0.415079 0.550894 0.0541853
221 1 0.502966 0.484197 0.00277013
222 1 0.554636 0.537205 0.999456
223 1 0.548508 0.488344 0.0442425
224 1 0.49508 0.550014 0.0497781
225 1 0.601317 0.484013 0.00860041
226 1 0.648124 0.542527 0.00948833
227 1 0.650811 0.492163 0.0522594
228 1 0.59794 0.546739 0.0491413
229 1 0.694806 0.49441 0.99152
230 1 0.733461 0.545657 -0.000615394
231 1 0.753763 0.501975 0.051137
232 1 0.700205 0.527628 0.0518252
233 1 0.801189 0.500547 0.997655
234 1 0.851388 0.54469 0.98597
235 1 0.847702 0.503455 0.0440154
236 1 0.783649 0.550108 0.0406407
237 1 0.903614 0.501654 0.987665
238 1 0.956005 0.542656 0.99991
239 1 0.962777 0.50769 0.0527797
240 1 0.906938 0.535847 0.0451408
241 1 0.00474375 0.595495 0.00642465
242 1 0.0550549 0.646308 0.00484632
243 1 0.0479466 0.607184 0.0559103
244 1 0.994937 0.648445 0.059415
245 1 0.10221 0.599484 0.00392209
246 1 0.140549 0.655147 0.00171926
247 1 0.153193 0.601128 0.0546717
248 1 0.113259 0.646854 0.0577391
249 1 0.203251 0.595461 0.00744513
250 1 0.244754 0.652596 0.00290254
251 1 0.254422 0.603493 0.0544804
252 1 0.198376 0.649219 0.0567782
253 1 0.302992 0.569361 0.00803622
254 1 0.354096 0.636225 0.0131177
255 1 0.350197 0.588068 0.0589224
256 1 0.3067 0.641844 0.0572842
257 1 0.393309 0.591481 0.00543785
258 1 0.44646 0.640745 0.00231049
259 1 0.455007 0.604474 0.0674337
260 1 0.398581 0.643367 0.0587385
261 1 0.494166 0.598125 0.00473025
262 1 0.539673 0.651994 1.00257
263 1 0.546397 0.602828 0.0541143
264 1 0.501185 0.645019 0.0565224
265 1 0.59871 0.583159 0.992089
266 1 0.645984 0.638164 0.989975
267 1 0.655155 0.592354 0.0470346
268 1 0.59518 0.656238 0.0433444
269 1 0.69735 0.598698 0.995507
270 1 0.744722 0.650364 0.998338
271 1 0.738884 0.598505 0.0395504
272 1 0.695287 0.647481 0.042243
273 1 0.800434 0.594325 0.998111
274 1 0.852708 0.643622 0.00160003
275 1 0.849455 0.590172 0.0503226
276 1 0.803086 0.640291 0.0472062
277 1 0.907675 0.597631 0.00717181
278 1 0.961274 0.639242 0.00271877
279 1 0.944848 0.588988 0.053831
280 1 0.909805 0.645209 0.0615104
281 1 0.00293277 0.694741 0.00698197
282 1 0.0490473 0.747181 0.994239
283 1 0.057732 0.6876 0.0508231
284 1 0.99842 0.750464 0.0440034
285 1 0.102182 0.698773 0.996715
286 1 0.149338 0.748762 0.999876
287 1 0.141399 0.701234 0.0498
288 1 0.0953242 0.744178 0.0495181
289 1 0.199089 0.70413 0.00944947
290 1 0.250945 0.744001 0.00336038
291 1 0.245712 0.697878 0.0548095
292 1 0.194263 0.747302 0.0592351
293 1 0.305322 0.689102 0.0196721
294 1 0.338887 0.742118 0.00127561
295 1 0.352089 0.691936 0.0595686
296 1 0.291801 0.742793 0.0556472
297 1 0.393735 0.695775 0.00554427
298 1 0.440429 0.741597 0.99271
299 1 0.445977 0.689315 0.0601257
300 1 0.3997 0.737049 0.0550237
301 1 0.48415 0.69603 0.00333737
302 1 0.543764 0.749979 0.992844
303 1 0.543298 0.699566 0.0508901
304 1 0.497756 0.745442 0.0600775
305 1 0.587629 0.697985 0.997185
306 1 0.635634 0.740882 0.00421401
307 1 0.644997 0.700888 0.0553026
308 1 0.589916 0.747237 0.0515557
309 1 0.685718 0.690427 0.99511
310 1 0.758777 0.750467 0.00161966
311 1 0.744347 0.699806 0.0467809
312 1 0.692197 0.735333 0.0425231
313 1 0.79314 0.693891 0.0024092
314 1 0.855827 0.740575 0.00113249
315 1 0.863516 0.691172 0.0422949
316 1 0.805126 0.750033 0.0425653
317 1 0.90499 0.689896 0.0019372
318 1 0.948791 0.750173 0.993836
319 1 0.952288 0.693916 0.0460763
320 1 0.903613 0.753903 0.0500785
321 1 0.988351 0.799008 0.00114965
322 1 0.0489625 0.847327 0.00331761
323 1 0.0443224 0.790062 0.0557217
324 1 1.00107 0.846769 0.0571595
325 1 0.0945115 0.799591 0.00668777
326 1 0.145127 0.847835 0.997715
327 1 0.151549 0.799776 0.0400164
328 1 0.0973116 0.845075 0.0528612
329 1 0.202271 0.798306 0.00175095
330 1 0.239471 0.845249 0.00657711
331 1 0.235888 0.796797 0.0518181
332 1 0.197136 0.847444 0.0502998
333 1 0.295289 0.790314 0.00190914
334 1 0.34605 0.836712 0.00123147
335 1 0.343614 0.789835 0.0508622
336 1 0.29564 0.833714 0.0541195
337 1 0.392502 0.792758 0.00338077
338 1 0.440906 0.845277 0.00465523
339 1 0.442035 0.800074 0.0533184
340 1 0.390793 0.841768 0.0472076
341 1 0.491583 0.799312 0.00193578
342 1 0.542413 0.837102 0.997488
343 1 0.545201 0.794653 0.0580032
344 1 0.491869 0.851104 0.0414476
345 1 0.592064 0.786788 0.997355
346 1 0.640208 0.830416 -0.00245682
347 1 0.643926 0.786332 0.0546709
348 1 0.593278 0.846636 0.0386609
349 1 0.704465 0.792851 -0.000150001
350 1 0.743856 0.84481 0.991456
351 1 0.747502 0.801686 0.0443448
352 1 0.699149 0.845399 0.043828
353 1 0.797458 0.80061 1.00054
354 1 0.842552 0.854114 0.986709
355 1 0.846773 0.807983 0.0449103
356 1 0.79993 0.849643 0.0399964
357 1 0.889182 0.792337 -0.00347113
358 1 0.939469 0.852341 0.995782
359 1 0.941465 0.799183 0.0472579
360 1 0.893668 0.849839 0.0394055
361 1 0.994394 0.892447 -0.00123207
362 1 0.0493573 0.941003 0.00318531
363 1 0.041888 0.901333 0.0572134
364 1 0.993 0.944094 0.0567912
365 1 0.100489 0.900707 0.00192867
366 1 0.146998 0.946274 0.998295
367 1 0.149314 0.894736 0.0448497
368 1 0.0963811 0.948915 0.0495779
369 1 0.201998 0.898832 0.00052743
370 1 0.246853 0.942449 0.00678916
371 1 0.250708 0.891191 0.0511945
372 1 0.194906 0.948289 0.0511824
373 1 0.297078 0.8897 0.00916546
374 1 0.347579 0.938909 0.996116
375 1 0.342755 0.884291 0.0515651
376 1 0.298888 0.9418 0.0482182
377 1 0.394143 0.891446 0.00129753
378 1 0.436334 0.948344 0.992188
379 1 0.436071 0.900102 0.0580268
380 1 0.389683 0.942021 0.0538425
381 1 0.485185 0.904555 1.00042
382 1 0.545009 0.941529 0.99726
383 1 0.545981 0.896102 0.0462083
384 1 0.497803 0.942407 0.045618
385 1 0.605924 0.900712 0.00293328
386 1 0.646656 0.951787 0.996893
387 1 0.652324 0.888554 0.0554619
388 1 0.595825 0.94742 0.0463569
389 1 0.686815 0.889614 0.991142
390 1 0.742883 0.943457 0.991197
391 1 0.749245 0.903446 0.0447004
392 1 0.697283 0.95047 0.0430216
393 1 0.790164 0.894112 0.98604
394 1 0.837209 0.939625 0.99305
395 1 0.851478 0.894542 0.042612
396 1 0.801952 0.940459 0.0450455
397 1 0.885634 0.897055 0.991447
398 1 0.942161 0.943574 0.991482
399 1 0.939188 0.908538 0.0484703
400 1 0.886377 0.949958 0.0477094
401 1 0.996821 0.986026 0.106079
402 1 0.0427778 0.031224 0.0986698
403 1 0.0449513 0.990955 0.152088
404 1 0.996683 0.0435378 0.151142
405 1 0.104143 0.995797 0.0998177
406 1 0.148357 0.0439411 0.0993545
407 1 0.144146 0.991726 0.156554
408 1 0.094884 0.0382763 0.144272
409 1 0.182622 0.991267 0.102352
410 1 0.244048 0.0433557 0.109105
411 1 0.246335 0.989202 0.147752
412 1 0.196998 0.0401035 0.149986
413 1 0.301111 0.996036 0.0948243
414 1 0.343009 0.0537469 0.107985
415 1 0.350519 0.990117 0.164628
416 1 0.301159 0.0338851 0.145299
417 1 0.394973 0.997532 0.0999586
418 1 0.457819 0.0338221 0.101968
419 1 0.439456 0.997482 0.15366
420 1 0.39684 0.0419805 0.157433
421 1 0.50629 0.998486 0.0945268
422 1 0.545938 0.0525965 0.100047
423 1 0.557977 0.997682 0.142439
424 1 0.504213 0.0350923 0.147808
425 1 0.598488 0.999006 0.0958157
426 1 0.644378 0.0436614 0.0994818
427 1 0.647716 -0.00199942 0.141096
428 1 0.592536 0.0468437 0.140018
429 1 0.693745 0.993144 0.0994917
430 1 0.743348 0.0399799 0.098825
431 1 0.741448 0.996421 0.14487
432 1 0.691275 0.0461348 0.145781
433 1 0.789171 0.99413 0.0870555
434 1 0.855311 0.0371843 0.0956525
435 1 0.833876 0.995062 0.148727
436 1 0.802916 0.046225 0.156238
437 1 0.900992 0.988795 0.0980396
438 1 0.945043 0.040187 0.113074
439 1 0.943989 0.99754 0.154497
440 1 0.897164 0.0509253 0.15059
441 1 0.992817 0.0914712 0.108139
442 1 0.0407333 0.144276 0.106109
443 1 0.0515906 0.0922931 0.150114
444 1 0.992646 0.139437 0.157246
445 1 0.101067 0.0926252 0.108485
446 1 0.140633 0.14073 0.0976312
447 1 0.155515 0.0958983 0.145371
448 1 0.100799 0.144322 0.156212
449 1 0.197274 0.095085 0.0944173
450 1 0.251274 0.150621 0.111028
451 1 0.234911 0.0966016 0.149767
452 1 0.184383 0.153831 0.153262
453 1 0.288297 0.100805 0.118367
454 1 0.348771 0.145563 0.103449
455 1 0.344987 0.102686 0.151236
456 1 0.29583 0.149939 0.153225
457 1 0.397499 0.0973398 0.104339
458 1 0.444296 0.154345 0.109741
459 1 0.443628 0.0818138 0.146178
460 1 0.393023 0.156433 0.154171
461 1 0.494328 0.0941324 0.0975204
462 1 0.546291 0.140476 0.0895219
463 1 0.545505 0.0896016 0.156375
464 1 0.50443 0.140582 0.140412
465 1 0.596645 0.0857877 0.0939828
466 1 0.642752 0.135371 0.0967642
467 1 0.636096 0.0954318 0.150347
468 1 0.58942 0.136559 0.143374
469 1 0.694647 0.089673 0.090448
470 1 0.743212 0.135996 0.0970084
471 1 0.750155 0.0929924 0.146922
472 1 0.696097 0.130303 0.141356
473 1 0.811981 0.082256 0.0990251
474 1 0.849149 0.140026 0.103062
475 1 0.844487 0.103981 0.152483
476 1 0.800075 0.144272 0.144012
477 1 0.897951 0.0907333 0.102577
478 1 0.951192 0.138284 0.107672
479 1 0.948004 0.0956089 0.15594
480 1 0.900175 0.14427 0.158666
481 1 0.00602985 0.202955 0.113413
482 1 0.054139 0.249179 0.105492
483 1 0.0611964 0.193863 0.147261
484 1 0.00593125 0.253931 0.152083
485 1 0.103697 0.197667 0.097363
486 1 0.141311 0.257405 0.105146
487 1 0.143139 0.198984 0.151476
488 1 0.093959 0.25505 0.161238
489 1 0.189678 0.187791 0.0972865
490 1 0.249362 0.241211 0.0984743
491 1 0.246752 0.201621 0.152151
492 1 0.187788 0.253689 0.153684
493 1 0.300714 0.195605 0.0935814
494 1 0.349818 0.247798 0.107827
495 1 0.346134 0.197258 0.14599
496 1 0.296339 0.251123 0.148987
497 1 0.395239 0.200042 0.104352
498 1 0.441144 0.253991 0.104219
499 1 0.442995 0.207365 0.150092
500 1 0.390548 0.255013 0.158653
501 1 0.501199 0.185067 0.0947952
502 1 0.550355 0.252292 0.0924028
503 1 0.542296 0.203363 0.144401
504 1 0.497204 0.249829 0.146302
505 1 0.589426 0.185839 0.0992165
506 1 0.642386 0.250484 0.0980575
507 1 0.644915 0.186414 0.148732
508 1 0.606157 0.235983 0.152398
509 1 0.688032 0.177124 0.102496
510 1 0.748311 0.239426 0.10128
511 1 0.744713 0.179022 0.144545
512 1 0.698288 0.226229 0.13808
513 1 0.792495 0.189872 0.0997698
514 1 0.855535 0.236911 0.114005
515 1 0.841366 0.198084 0.16345
516 1 0.795678 0.248506 0.144966
517 1 0.912822 0.19795 0.104206
518 1 0.956765 0.243138 0.0988801
519 1 0.955881 0.198819 0.149932
520 1 0.897577 0.232882 0.162874
521 1 0.00803438 0.299593 0.0982735
522 1 0.0573666 0.341334 0.10015
523 1 0.0533185 0.304692 0.151185
524 1 0.999367 0.3508 0.144532
525 1 0.0994455 0.297801 0.0989335
526 1 0.155697 0.345363 0.110312
527 1 0.148503 0.301331 0.158208
528 1 0.0945045 0.354337 0.150642
529 1 0.196935 0.293002 0.0962301
530 1 0.235761 0.340148 0.106303
531 1 0.239598 0.292881 0.152251
532 1 0.194191 0.347321 0.163176
533 1 0.282203 0.296912 0.104072
534 1 0.344208 0.33769 0.103239
535 1 0.338677 0.299499 0.152745
536 1 0.288018 0.35161 0.14049
537 1 0.390247 0.297783 0.111933
538 1 0.446391 0.345379 0.108115
539 1 0.443193 0.30151 0.151426
540 1 0.396853 0.352634 0.158514
541 1 0.489706 0.299492 0.101513
542 1 0.546809 0.349932 0.104362
543 1 0.563641 0.296956 0.151704
544 1 0.49059 0.353821 0.150286
545 1 0.601762 0.309082 0.100119
546 1 0.652359 0.350317 0.100905
547 1 0.651152 0.305685 0.152239
548 1 0.596476 0.354079 0.158512
549 1 0.705942 0.286755 0.106514
550 1 0.748429 0.336684 0.103922
551 1 0.745449 0.29966 0.157668
552 1 0.700709 0.346463 0.151202
553 1 0.792688 0.291014 0.100469
554 1 0.851107 0.35481 0.0963589
555 1 0.853269 0.307576 0.13894
556 1 0.804598 0.342952 0.145374
557 1 0.905767 0.301453 0.10134
558 1 0.94909 0.356569 0.103992
559 1 0.955867 0.294012 0.154742
560 1 0.899294 0.348506 0.153067
561 1 0.997966 0.401809 0.101162
562 1 0.0445757 0.446621 0.09494
563 1 0.0501531 0.398145 0.143018
564 1 -0.000649475 0.454802 0.14923
565 1 0.0911929 0.397307 0.0984571
566 1 0.13754 0.453517 0.0986134
567 1 0.140359 0.405858 0.142533
568 1 0.0906373 0.448014 0.14089
569 1 0.19133 0.395446 0.11652
570 1 0.247276 0.456984 0.0985361
571 1 0.24385 0.398119 0.149082
572 1 0.193111 0.450995 0.145237
573 1 0.293863 0.407464 0.103935
574 1 0.34657 0.443784 0.104061
575 1 0.34418 0.390051 0.142042
576 1 0.296044 0.448323 0.152126
577 1 0.391793 0.388715 0.0984197
578 1 0.448464 0.445996 0.0974882
579 1 0.446243 0.400195 0.151976
580 1 0.394454 0.43931 0.150843
581 1 0.489585 0.395081 0.100014
582 1 0.545532 0.431098 0.105145
583 1 0.546966 0.401993 0.16612
584 1 0.490951 0.440735 0.15542
585 1 0.59955 0.386651 0.101487
586 1 0.644973 0.436271 0.0910235
587 1 0.648407 0.400928 0.147135
588 1 0.595718 0.443847 0.14622
589 1 0.704126 0.40973 0.102809
590 1 0.752338 0.452706 0.110607
591 1 0.763848 0.40158 0.155545
592 1 0.705308 0.448517 0.158084
593 1 0.803477 0.409081 0.0858808
594 1 0.84771 0.453922 0.0819439
595 1 0.857506 0.405594 0.152922
596 1 0.810241 0.449109 0.150279
597 1 0.898072 0.417341 0.0866021
598 1 0.954634 0.458218 0.103261
599 1 0.946615 0.404883 0.144634
600 1 0.898252 0.456028 0.143237
601 1 0.00214761 0.510559 0.105395
602 1 0.0486657 0.552411 0.0991114
603 1 0.0509328 0.50712 0.152578
604 1 0.00661672 0.557967 0.157567
605 1 0.091656 0.507373 0.0965262
606 1 0.141934 0.550809 0.103718
607 1 0.140807 0.499871 0.140749
608 1 0.0962509 0.554407 0.153516
609 1 0.191475 0.503202 0.099034
610 1 0.244958 0.552232 0.0972484
611 1 0.24594 0.502883 0.157496
612 1 0.196834 0.548433 0.152372
613 1 0.298496 0.491979 0.106554
614 1 0.356795 0.544915 0.10394
615 1 0.351633 0.500017 0.147777
616 1 0.30119 0.539776 0.15698
617 1 0.401935 0.49668 0.0997923
618 1 0.446313 0.543867 0.111623
619 1 0.439812 0.491169 0.15585
620 1 0.396183 0.542554 0.155694
621 1 0.495903 0.491123 0.107364
622 1 0.544753 0.533735 0.0997902
623 1 0.55072 0.486186 0.147166
624 1 0.493328 0.529055 0.155722
625 1 0.595242 0.486855 0.0989901
626 1 0.641149 0.552317 0.102616
627 1 0.649513 0.489626 0.144564
628 1 0.588878 0.5426 0.149479
629 1 0.695606 0.485776 0.103375
630 1 0.744468 0.525808 0.106399
631 1 0.744797 0.494489 0.160757
632 1 0.699506 0.541438 0.1556
633 1 0.801065 0.504456 0.102642
634 1 0.854943 0.556168 0.101035
635 1 0.849368 0.50159 0.149496
636 1 0.799035 0.545846 0.151364
637 1 0.903092 0.502865 0.10288
638 1 0.948976 0.54945 0.103694
639 1 0.949813 0.502811 0.156742
640 1 0.904153 0.554749 0.149425
641 1 1.00067 0.605124 0.109613
642 1 0.0609284 0.646442 0.104712
643 1 0.0578957 0.60345 0.154335
644 1 0.00860844 0.647274 0.15361
645 1 0.108308 0.603216 0.110343
646 1 0.150088 0.648812 0.108357
647 1 0.147175 0.589799 0.160843
648 1 0.103357 0.651485 0.153459
649 1 0.19682 0.595202 0.104186
650 1 0.252553 0.647342 0.104398
651 1 0.249732 0.594491 0.151445
652 1 0.205561 0.647196 0.153643
653 1 0.29919 0.594899 0.109923
654 1 0.3492 0.642774 0.104896
655 1 0.351271 0.59464 0.151151
656 1 0.298097 0.648324 0.153583
657 1 0.408367 0.597332 0.115992
658 1 0.445786 0.649883 0.108324
659 1 0.453258 0.594371 0.162634
660 1 0.397658 0.6443 0.161476
661 1 0.504212 0.581767 0.10051
662 1 0.545531 0.655542 0.101676
663 1 0.547852 0.589491 0.149344
664 1 0.501119 0.641822 0.154596
665 1 0.589982 0.596903 0.100038
666 1 0.642916 0.63657 0.0876031
667 1 0.646046 0.606255 0.147899
668 1 0.596837 0.644745 0.156131
669 1 0.69959 0.596899 0.0885895
670 1 0.741644 0.649476 0.0947952
671 1 0.750186 0.591649 0.140641
672 1 0.707578 0.634826 0.152453
673 1 0.791857 0.592313 0.0952731
674 1 0.851268 0.643243 0.0941054
675 1 0.853016 0.601573 0.142231
676 1 0.795233 0.65195 0.137496
677 1 0.905712 0.597299 0.105032
678 1 0.952973 0.660363 0.114289
679 1 0.95184 0.608477 0.149802
680 1 0.890857 0.658996 0.147494
681 1 0.00579715 0.707652 0.090097
682 1 0.0563409 0.754527 0.107642
683 1 0.0517156 0.707206 0.153923
684 1 0.996646 0.747142 0.144666
685 1 0.10989 0.705665 0.105119
686 1 0.142368 0.760143 0.101121
687 1 0.154799 0.698206 0.157339
688 1 0.100571 0.750979 0.154784
689 1 0.188448 0.703449 0.102087
690 1 0.24483 0.749677 0.106144
691 1 0.247145 0.699061 0.14382
692 1 0.193505 0.748353 0.152316
693 1 0.300168 0.700394 0.0987626
694 1 0.343054 0.74671 0.104999
695 1 0.347057 0.685247 0.149735
696 1 0.295329 0.72963 0.157375
697 1 0.399477 0.6907 0.108916
698 1 0.445189 0.740695 0.10148
699 1 0.45668 0.691704 0.156413
700 1 0.396936 0.740136 0.144428
701 1 0.492598 0.692107 0.103211
702 1 0.546734 0.736718 0.107356
703 1 0.547927 0.693206 0.150763
704 1 0.492251 0.744136 0.155975
705 1 0.597243 0.688778 0.0991453
706 1 0.646413 0.728803 0.113823
707 1 0.651136 0.674912 0.141275
708 1 0.604437 0.737159 0.158673
709 1 0.705591 0.698087 0.116554
710 1 0.75274 0.752802 0.085789
711 1 0.758931 0.715618 0.142435
712 1 0.711167 0.76166 0.143649
713 1 0.794673 0.698042 0.0863624
714 1 0.849649 0.753674 0.0899706
715 1 0.835782 0.702293 0.142902
716 1 0.805947 0.761243 0.146455
717 1 0.90353 0.700004 0.0910964
718 1 0.951816 0.744843 0.096751
719 1 0.944632 0.708752 0.151951
720 1 0.885538 0.749504 0.140232
721 1 0.988687 0.796947 0.0963558
722 1 0.0465904 0.85763 0.110325
723 1 0.0329358 0.805205 0.148688
724 1 0.986398 0.851705 0.14626
725 1 0.0951391 0.800889 0.100838
726 1 0.14865 0.840932 0.0930499
727 1 0.14003 0.80795 0.147479
728 1 0.100651 0.857274 0.152426
729 1 0.197905 0.800588 0.107905
730 1 0.252944 0.842844 0.0981687
731 1 0.247053 0.803083 0.158051
732 1 0.196269 0.84842 0.154511
733 1 0.300744 0.796366 0.116986
734 1 0.346424 0.840004 0.101582
735 1 0.346742 0.799577 0.153053
736 1 0.297962 0.848541 0.15438
737 1 0.396595 0.787927 0.0985564
738 1 0.448957 0.848788 0.103291
739 1 0.451787 0.797461 0.148126
740 1 0.398607 0.83715 0.141858
741 1 0.501045 0.796135 0.0991864
742 1 0.561037 0.848508 0.0985943
743 1 0.553663 0.80329 0.151646
744 1 0.501909 0.846758 0.148316
745 1 0.595924 0.784139 0.112332
746 1 0.650326 0.83724 0.0956973
747 1 0.645274 0.799005 0.14882
748 1 0.602015 0.847781 0.148666
749 1 0.707462 0.79685 0.0953679
750 1 0.753836 0.852091 0.0916379
751 1 0.754567 0.803457 0.139603
752 1 0.705656 0.838682 0.140943
753 1 0.799824 0.796999 0.0908504
754 1 0.844355 0.848158 0.0876151
755 1 0.845515 0.806722 0.14082
756 1 0.794125 0.853863 0.144057
757 1 0.896403 0.811874 0.092144
758 1 0.950763 0.854782 0.09618
759 1 0.943949 0.788329 0.143917
760 1 0.900129 0.85452 0.14311
761 1 0.999419 0.90753 0.111733
762 1 0.058801 0.950486 0.0989326
763 1 0.0444686 0.910724 0.150617
764 1 0.987768 0.959268 0.165786
765 1 0.0960361 0.899285 0.100925
766 1 0.142222 0.945144 0.0931669
767 1 0.150362 0.890361 0.134506
768 1 0.102892 0.949183 0.143475
769 1 0.199708 0.898758 0.093903
770 1 0.253473 0.949388 0.0978703
771 1 0.255009 0.902412 0.149079
772 1 0.197519 0.941787 0.156351
773 1 0.305474 0.893481 0.103073
774 1 0.347651 0.937702 0.10914
775 1 0.345953 0.891664 0.154551
776 1 0.302135 0.948595 0.157836
777 1 0.388012 0.895202 0.0995159
778 1 0.454268 0.966386 0.101504
779 1 0.444011 0.893269 0.150236
780 1 0.39746 0.944265 0.152577
781 1 0.503131 0.893685 0.0973756
782 1 0.544877 0.941129 0.103
783 1 0.551201 0.889428 0.144906
784 1 0.492358 0.942725 0.1453
785 1 0.599653 0.895982 0.0960405
786 1 0.643772 0.942269 0.090605
787 1 0.650111 0.897542 0.14096
788 1 0.602927 0.949276 0.142561
789 1 0.699675 0.90018 0.088682
790 1 0.745759 0.950711 0.0874154
791 1 0.748505 0.892694 0.146548
792 1 0.701411 0.942526 0.147105
793 1 0.79947 0.898692 0.0897824
794 1 0.848969 0.945489 0.102277
795 1 0.851341 0.893384 0.15448
796 1 0.799629 0.936845 0.151679
797 1 0.896003 0.904265 0.0992669
798 1 0.945432 0.943385 0.107598
799 1 0.944846 0.903727 0.157454
800 1 0.896665 0.950202 0.149682
801 1 0.988501 0.00546548 0.211179
802 1 0.0421341 0.0426065 0.19925
803 1 0.0491081 0.99152 0.254018
804 1 0.987782 0.05749 0.252277
805 1 0.101354 0.991277 0.199982
806 1 0.13656 0.0459716 0.201675
807 1 0.137725 -0.00230783 0.25893
808 1 0.0905321 0.0382104 0.250365
809 1 0.193866 0.993557 0.197522
810 1 0.241972 0.0422008 0.19664
811 1 0.234502 0.0039048 0.255069
812 1 0.184345 0.0512692 0.254425
813 1 0.284435 0.995247 0.211137
814 1 0.346198 0.0496456 0.199741
815 1 0.346115 0.98976 0.251509
816 1 0.301422 0.0449723 0.247234
817 1 0.403832 0.997887 0.209032
818 1 0.45071 0.0474707 0.19951
819 1 0.451574 0.997279 0.25479
820 1 0.392903 0.0472596 0.244226
821 1 0.488366 0.989363 0.193776
822 1 0.549299 0.0390747 0.198683
823 1 0.547332 0.98877 0.238361
824 1 0.498736 0.0355353 0.245993
825 1 0.605378 0.990786 0.196001
826 1 0.639727 0.0474626 0.197366
827 1 0.643213 -0.000221479 0.246746
828 1 0.594012 0.0406764 0.24204
829 1 0.687626 0.983266 0.19192
830 1 0.748777 0.0322081 0.19678
831 1 0.748317 0.989626 0.25244
832 1 0.692477 0.0523505 0.245744
833 1 0.801221 0.990782 0.207085
834 1 0.847243 0.038315 0.19984
835 1 0.853524 0.989844 0.249538
836 1 0.789668 0.0381458 0.253324
837 1 0.893683 0.996913 0.199173
838 1 0.940613 0.0437441 0.206578
839 1 0.940944 -0.00201842 0.247482
840 1 0.891964 0.0464094 0.25015
841 1 0.99099 0.0906937 0.200002
842 1 0.0484363 0.138739 0.196039
843 1 0.0412318 0.0903431 0.244551
844 1 0.00617629 0.149275 0.24456
845 1 0.0889071 0.0848544 0.20111
846 1 0.142891 0.150405 0.200755
847 1 0.149133 0.102223 0.242448
848 1 0.0887256 0.147951 0.242998
849 1 0.199865 0.0930162 0.20068
850 1 0.237834 0.154017 0.189198
851 1 0.24424 0.097698 0.255557
852 1 0.191709 0.149952 0.239601
853 1 0.292725 0.0956562 0.19328
854 1 0.339346 0.163386 0.200965
855 1 0.34427 0.0920519 0.240588
856 1 0.297444 0.148399 0.254544
857 1 0.401747 0.102681 0.196617
858 1 0.451389 0.152284 0.191147
859 1 0.448434 0.0948259 0.244219
860 1 0.393904 0.148773 0.241001
861 1 0.492778 0.103217 0.193887
862 1 0.544627 0.141624 0.191064
863 1 0.541738 0.0943991 0.249282
864 1 0.499036 0.144026 0.246789
865 1 0.593041 0.0895615 0.195505
866 1 0.643787 0.137499 0.202473
867 1 0.642349 0.0950468 0.249007
868 1 0.599637 0.15082 0.244811
869 1 0.690998 0.0931801 0.19496
870 1 0.740309 0.13305 0.198507
871 1 0.755381 0.0887856 0.257139
872 1 0.686426 0.143504 0.243638
873 1 0.791605 0.0962507 0.197694
874 1 0.846666 0.142155 0.202831
875 1 0.844627 0.0945099 0.247175
876 1 0.791013 0.139516 0.260079
877 1 0.893549 0.0912271 0.201578
878 1 0.947209 0.139241 0.205386
879 1 0.934607 0.0951607 0.25275
880 1 0.891931 0.14564 0.247341
881 1 0.00555363 0.199038 0.189664
882 1 0.0478916 0.252622 0.20463
883 1 0.0428619 0.19758 0.247152
884 1 0.994235 0.254918 0.245251
885 1 0.0996984 0.196463 0.199648
886 1 0.145875 0.25244 0.200905
887 1 0.143816 0.197244 0.242509
888 1 0.09971 0.253407 0.255584
889 1 0.196778 0.199432 0.197682
890 1 0.249518 0.253372 0.20667
891 1 0.242035 0.197813 0.240621
892 1 0.189405 0.240306 0.249149