ITEM: TIMESTEP
27100
ITEM: NUMBER OF ATOMS
4000
ITEM: BOX BOUNDS pp pp pp
0.0000000000000000e+00 1.6795961913825074e+01
0.0000000000000000e+00 1.6795961913825074e+01
0.0000000000000000e+00 1.6795961913825074e+01
ITEM: ATOMS id type xs ys zs
1 1 0.933041 0.953876 0.0327383
2 1 0.0570936 0.0708964 0.979751
3 1 0.0304724 0.00225974 0.975519
4 1 0.993302 0.00272084 0.0660506
5 1 0.10359 0.968424 0.0264671
6 1 0.0957484 0.00823384 0.978237
7 1 0.127757 0.0246825 0.0338879
8 1 0.0642269 0.0284271 0.0459397
9 1 0.314173 0.0235311 0.963125
10 1 0.183923 0.0684034 0.992044
11 1 0.194619 0.95556 0.0994881
12 1 0.247143 0.0367494 0.995996
13 1 0.291559 0.045009 0.0417021
14 1 0.382307 0.123118 0.0174623
15 1 0.39958 0.0453287 0.124689
16 1 0.239533 0.987069 0.115319
17 1 0.3903 0.964367 0.996152
18 1 0.428894 0.0390089 0.00350374
19 1 0.407864 0.0694589 0.0500304
20 1 0.4583 0.069922 0.111345
21 1 0.50552 0.978853 0.0612338
22 1 0.466595 0.036651 0.0589333
23 1 0.551194 0.950819 0.0298801
24 1 0.526014 0.0189898 0.0153153
25 1 0.565198 0.930656 0.975255
26 1 0.689986 0.0666942 0.0333448
27 1 0.703232 0.944418 0.118982
28 1 0.651017 0.0146971 0.0309088
29 1 0.721517 0.0403021 0.976054
30 1 0.757703 0.074381 0.00979771
31 1 0.763539 0.0719877 0.0706993
32 1 0.644587 0.0585597 0.0756021
33 1 0.792917 0.946983 0.933454
34 1 0.804756 0.115317 0.0250191
35 1 0.742803 0.0199671 0.0409953
36 1 0.808287 0.0722615 0.975226
37 1 0.887543 0.956415 0.0818668
38 1 0.918177 0.0524647 0.986142
39 1 0.87001 0.961158 0.0048948
40 1 0.947968 0.980891 0.0896153
41 1 0.966846 0.0896615 0.992932
42 1 0.0773997 0.136671 0.98207
43 1 0.0255102 0.115343 0.00819613
44 1 0.989178 0.0989618 0.057082
45 1 0.146236 0.0914381 0.0330865
46 1 0.228341 0.195874 0.960438
47 1 0.146734 0.176924 0.0440399
48 1 0.0892462 0.150847 0.0412927
49 1 0.139784 0.0189447 0.929421
50 1 0.231289 0.155954 0.0674771
51 1 0.269794 0.106267 0.0463349
52 1 0.126786 0.126327 0.0859052
53 1 0.294145 0.169533 0.0706931
54 1 0.404278 0.171991 0.980651
55 1 0.267406 0.0687014 0.0949275
56 1 0.297362 0.217117 0.971403
57 1 0.377392 0.0152862 0.966348
58 1 0.502007 0.208243 0.9672
59 1 0.438347 0.113396 0.991757
60 1 0.342202 0.128596 0.0750384
61 1 0.476046 0.133951 0.949863
62 1 0.540112 0.140294 0.953549
63 1 0.590342 0.990838 0.010956
64 1 0.46716 0.093404 0.0456756
65 1 0.551738 0.0105161 0.95473
66 1 0.6114 0.149239 0.0452644
67 1 0.475218 0.0211012 0.156049
68 1 0.514775 0.0229238 0.106183
69 1 0.576486 0.0998664 0.077261
70 1 0.743208 0.180389 0.976239
71 1 0.740839 0.14726 0.035774
72 1 0.600808 0.177954 0.975549
73 1 0.717485 0.0969619 0.949703
74 1 0.826235 0.135315 0.968991
75 1 0.812411 0.191359 0.994485
76 1 0.736988 0.18853 0.0930076
77 1 0.88915 0.0205189 0.0546665
78 1 0.894437 0.170505 0.993578
79 1 0.946503 0.0525528 0.0417085
80 1 0.855892 0.138363 0.057374
81 1 0.0602781 0.185083 0.9356
82 1 0.0360443 0.236383 0.0202207
83 1 0.979729 0.216996 0.998456
84 1 0.00764541 0.246271 0.0740825
85 1 0.0944677 0.192357 0.992057
86 1 0.197205 0.254768 0.980811
87 1 0.136163 0.236651 0.0260597
88 1 0.0811 0.212573 0.0604144
89 1 0.199305 0.204433 0.0208607
90 1 0.251786 0.224317 0.0565853
91 1 0.181799 0.223537 0.0823977
92 1 0.217867 0.286169 0.0342213
93 1 0.350404 0.190932 0.949271
94 1 0.29888 0.263495 0.902708
95 1 0.342128 0.17597 0.0178568
96 1 0.302163 0.219754 0.107653
97 1 0.35789 0.134025 0.962805
98 1 0.477883 0.167268 0.00227385
99 1 0.415151 0.17682 0.0417784
100 1 0.316664 0.238551 0.0444289
101 1 0.5433 0.175593 0.0109262
102 1 0.57595 0.237449 0.885537
103 1 0.566526 0.23087 0.977632
104 1 0.532271 0.310005 0.0321524
105 1 0.508856 0.0784309 0.996842
106 1 0.658812 0.197857 0.00511925
107 1 0.699693 0.227228 0.0538496
108 1 0.521384 0.123972 0.0405853
109 1 0.628307 0.0847976 0.0180224
110 1 0.750025 0.229055 0.0133626
111 1 0.724671 0.226021 0.146671
112 1 0.753264 0.249975 0.0895414
113 1 0.864371 0.208658 0.957103
114 1 0.85386 0.263024 0.015476
115 1 0.863527 0.202293 0.034261
116 1 0.808387 0.226469 0.056082
117 1 0.975103 0.155457 0.0329827
118 1 0.936968 0.21507 0.041107
119 1 0.969893 0.193756 0.105891
120 1 0.902643 0.208495 0.127368
121 1 0.976135 0.29142 0.999597
122 1 0.0292078 0.317868 0.981246
123 1 0.0457126 0.293108 0.0462291
124 1 0.0081966 0.346775 0.0292874
125 1 0.0900823 0.260308 0.981681
126 1 0.14699 0.368831 0.996459
127 1 0.156999 0.304549 0.00393054
128 1 0.0933945 0.335391 0.0264764
129 1 0.216694 0.315999 0.975076
130 1 0.263427 0.352875 0.991276
131 1 0.265141 0.278134 0.988372
132 1 0.226786 0.348348 0.0410304
133 1 0.325677 0.30508 0.00137658
134 1 0.365844 0.349007 0.00225147
135 1 0.301813 0.304386 0.0645703
136 1 0.310307 0.35754 0.0366913
137 1 0.364375 0.336193 0.06056
138 1 0.46774 0.277913 0.0449217
139 1 0.488227 0.309269 0.139289
140 1 0.389107 0.383741 0.0903266
141 1 0.481059 0.219995 0.0349007
142 1 0.549929 0.354436 0.993082
143 1 0.546828 0.242829 0.0389301
144 1 0.530993 0.302708 0.0919433
145 1 0.634212 0.255407 0.0191252
146 1 0.628868 0.318501 0.00948814
147 1 0.650179 0.264211 0.0853851
148 1 0.591779 0.344991 0.0468173
149 1 0.690324 0.256353 0.979895
150 1 0.736984 0.29866 0.974916
151 1 0.781506 0.302367 0.1015
152 1 0.713402 0.293528 0.0504226
153 1 0.795634 0.279968 0.0261284
154 1 0.859162 0.312053 0.976771
155 1 0.840155 0.284232 0.0732188
156 1 0.759435 0.329089 0.0373136
157 1 0.915336 0.28888 0.982344
158 1 0.945563 0.348092 0.0123055
159 1 0.986816 0.306272 0.0788017
160 1 0.87791 0.338805 0.0308777
161 1 0.0151329 0.411667 0.985531
162 1 0.0492479 0.468143 0.998313
163 1 0.0236877 0.403254 0.057254
164 1 0.997334 0.463412 0.0468717
165 1 0.116023 0.426314 0.998419
166 1 0.161 0.46237 0.951676
167 1 0.138966 0.394414 0.0480565
168 1 0.0774244 0.446917 0.0529619
169 1 0.203099 0.396769 0.0105429
170 1 0.222416 0.457665 0.993015
171 1 0.26104 0.398791 0.0393641
172 1 0.160351 0.450686 0.0295604
173 1 0.261714 0.413349 0.980696
174 1 0.344932 0.484332 0.982529
175 1 0.335774 0.412059 0.0119618
176 1 0.279322 0.451098 0.0298461
177 1 0.386338 0.287951 0.0120123
178 1 0.397832 0.511205 0.978413
179 1 0.421194 0.335961 0.0365802
180 1 0.40529 0.469405 0.0318384
181 1 0.481427 0.336018 0.0617086
182 1 0.550771 0.417659 0.987131
183 1 0.535546 0.370727 0.0535022
184 1 0.463363 0.448017 0.0059753
185 1 0.605419 0.388472 0.991743
186 1 0.651577 0.432684 0.995443
187 1 0.683012 0.363379 0.0179408
188 1 0.592498 0.410832 0.055029
189 1 0.677898 0.325728 0.954687
190 1 0.753433 0.442132 0.0220324
191 1 0.734195 0.377334 0.0650591
192 1 0.690764 0.428952 0.0412451
193 1 0.785435 0.389713 0.021243
194 1 0.853178 0.433313 0.00837384
195 1 0.84308 0.387977 0.0458531
196 1 0.798418 0.43371 0.0672278
197 1 0.908166 0.396393 0.0216705
198 1 0.941128 0.447044 0.0112966
199 1 0.961533 0.392103 0.0623203
200 1 0.898062 0.454885 0.0524473
201 1 0.989233 0.503688 0.999597
202 1 0.0275851 0.558859 0.00203922
203 1 0.0528476 0.508151 0.0515501
204 1 0.989849 0.538848 0.0510387
205 1 0.0759794 0.528974 0.994911
206 1 0.128614 0.553252 0.00371637
207 1 0.122337 0.49772 0.048259
208 1 0.0927833 0.561034 0.0492365
209 1 0.175052 0.506511 0.996997
210 1 0.257348 0.589894 0.00853108
211 1 0.216988 0.499218 0.0432237
212 1 0.169205 0.546408 0.0517057
213 1 0.282127 0.480132 0.972379
214 1 0.338715 0.552733 0.953429
215 1 0.355529 0.515146 0.0327632
216 1 0.282622 0.515389 0.0406921
217 1 0.386498 0.515507 0.916451
218 1 0.452718 0.52941 0.999279
219 1 0.473907 0.478983 0.0630951
220 1 0.419181 0.532044 0.0547126
221 1 0.507213 0.487124 0.990831
222 1 0.563989 0.516163 0.98044
223 1 0.560325 0.463673 0.031735
224 1 0.543377 0.520246 0.0440975
225 1 0.592571 0.462203 0.969962
226 1 0.644201 0.526165 0.993672
227 1 0.630116 0.457201 0.0471923
228 1 0.601367 0.511371 0.0620621
229 1 0.699975 0.481776 0.992509
230 1 0.751682 0.525346 0.993633
231 1 0.73759 0.497396 0.0474403
232 1 0.678636 0.529881 0.0491667
233 1 0.801195 0.474656 0.00646895
234 1 0.836584 0.538571 0.000718439
235 1 0.84406 0.48002 0.0509167
236 1 0.796388 0.532187 0.0517494
237 1 0.887498 0.490221 0.00578812
238 1 0.940572 0.549134 0.00678749
239 1 0.942529 0.496735 0.0478738
240 1 0.884099 0.544345 0.0486123
241 1 0.980688 0.594795 0.0092327
242 1 0.0332394 0.630147 0.00958057
243 1 0.0226159 0.589397 0.0593089
244 1 0.980011 0.638591 0.0543499
245 1 0.0909301 0.609789 0.985485
246 1 0.192079 0.574808 0.999293
247 1 0.146826 0.600635 0.0799101
248 1 0.0802266 0.625233 0.0491872
249 1 0.210447 0.648797 0.0100857
250 1 0.27102 0.652255 0.988227
251 1 0.209028 0.603004 0.0545276
252 1 0.325436 0.680018 0.974897
253 1 0.317593 0.633167 0.0156577
254 1 0.366517 0.59893 0.0502767
255 1 0.322725 0.573398 0.0124477
256 1 0.37851 0.684789 0.0514582
257 1 0.40567 0.573682 0.00263337
258 1 0.421355 0.633067 0.0226788
259 1 0.481967 0.540113 0.0607265
260 1 0.457358 0.674615 0.0598169
261 1 0.524003 0.558826 0.00238937
262 1 0.587707 0.62805 0.0244328
263 1 0.550608 0.583408 0.0559701
264 1 0.516671 0.640008 0.0458868
265 1 0.599073 0.57376 0.999048
266 1 0.644698 0.619685 0.0182293
267 1 0.629451 0.567447 0.0668983
268 1 0.624844 0.645452 0.0966174
269 1 0.694178 0.576954 0.00304347
270 1 0.738699 0.645553 0.0184794
271 1 0.738059 0.561336 0.0523256
272 1 0.691242 0.604558 0.0573182
273 1 0.778181 0.579275 0.00925455
274 1 0.835561 0.621438 0.0192264
275 1 0.838094 0.582137 0.0672416
276 1 0.785038 0.617845 0.0611675
277 1 0.884195 0.582541 0.997647
278 1 0.940419 0.649677 0.00452434
279 1 0.924119 0.599314 0.0419582
280 1 0.869686 0.640534 0.0696037
281 1 0.00395232 0.695255 0.0107334
282 1 0.0603598 0.723517 0.00435978
283 1 0.0472701 0.677002 0.0521852
284 1 0.962271 0.720292 0.0632766
285 1 0.105375 0.674998 0.0167185
286 1 0.194991 0.732888 0.0259301
287 1 0.146573 0.627419 0.0261532
288 1 0.0772793 0.78257 0.0281494
289 1 0.208169 0.807149 0.0257391
290 1 0.33511 0.784704 0.996002
291 1 0.261704 0.718905 0.108885
292 1 0.242927 0.76972 0.057054
293 1 0.368582 0.618388 0.97877
294 1 0.369059 0.751665 0.945557
295 1 0.342984 0.724359 0.0196025
296 1 0.303731 0.684776 0.0750289
297 1 0.385242 0.701018 0.973846
298 1 0.393026 0.760245 0.00334716
299 1 0.433166 0.713646 0.011575
300 1 0.366435 0.810771 0.0522907
301 1 0.47681 0.656085 0.99733
302 1 0.551797 0.686836 0.00738583
303 1 0.528437 0.679782 0.11047
304 1 0.545273 0.805171 0.072659
305 1 0.578021 0.703539 0.950354
306 1 0.613445 0.684027 0.0141324
307 1 0.675574 0.667031 0.0390803
308 1 0.545134 0.754689 0.0247139
309 1 0.719988 0.70362 0.00605471
310 1 0.745787 0.763629 0.00536003
311 1 0.753906 0.686385 0.0686001
312 1 0.658544 0.740146 0.0138918
313 1 0.807074 0.681434 0.0290641
314 1 0.813713 0.745291 0.992594
315 1 0.813537 0.687819 0.0873299
316 1 0.794902 0.758774 0.0500224
317 1 0.872143 0.696432 0.00479573
318 1 0.930151 0.711509 0.00446449
319 1 0.912063 0.682195 0.0555042
320 1 0.850205 0.729364 0.0552532
321 1 0.999557 0.757688 0.0148144
322 1 0.0513469 0.828098 0.99805
323 1 0.0652608 0.847361 0.0574265
324 1 0.00988571 0.813491 0.0406383
325 1 0.126542 0.740577 0.997755
326 1 0.166722 0.839258 0.929071
327 1 0.176132 0.769357 0.0860859
328 1 0.155988 0.847067 0.999042
329 1 0.145046 0.792682 0.0369837
330 1 0.238637 0.898081 0.985059
331 1 0.272132 0.786393 0.997036
332 1 0.194756 0.896917 0.0358908
333 1 0.242823 0.928177 0.0774776
334 1 0.284248 0.849688 0.990956
335 1 0.369464 0.751975 0.0701815
336 1 0.259834 0.855966 0.0467379
337 1 0.38169 0.822216 0.979985
338 1 0.433968 0.810088 0.0217656
339 1 0.432123 0.753577 0.0615764
340 1 0.317265 0.845545 0.0625542
341 1 0.502515 0.707567 0.0316718
342 1 0.499192 0.854167 0.0742747
343 1 0.541751 0.880378 0.11293
344 1 0.473591 0.764825 0.00798527
345 1 0.596977 0.743993 0.990159
346 1 0.606378 0.880476 0.998805
347 1 0.620172 0.780383 0.0377248
348 1 0.593898 0.841208 0.107123
349 1 0.645662 0.761769 0.950231
350 1 0.64802 0.832835 0.0139632
351 1 0.740735 0.776139 0.0769053
352 1 0.648537 0.83061 0.0806331
353 1 0.776759 0.79334 0.940564
354 1 0.817428 0.924962 0.986386
355 1 0.801734 0.800149 0.00730928
356 1 0.679852 0.791887 0.0545616
357 1 0.891202 0.76824 0.994287
358 1 0.921721 0.830569 0.992195
359 1 0.935475 0.773687 0.0356921
360 1 0.855078 0.798882 0.0561781
361 1 0.0808081 0.892023 0.00220038
362 1 0.978862 0.933771 0.945646
363 1 0.113488 0.798698 0.982281
364 1 0.0237256 0.882679 0.0199261
365 1 0.0353156 0.939295 0.96698
366 1 0.182347 0.89683 0.959759
367 1 0.136525 0.912493 0.0126325
368 1 0.119833 0.057305 0.0965611
369 1 0.209128 0.95149 0.999454
370 1 0.295116 0.998384 0.0868214
371 1 0.183884 0.946906 0.174756
372 1 0.169811 0.979083 0.0412766
373 1 0.341488 0.930452 0.994143
374 1 0.284328 0.930471 0.0285703
375 1 0.306194 0.907897 0.0809715
376 1 0.328626 0.972737 0.0415076
377 1 0.393905 0.928361 0.0487895
378 1 0.468914 0.91401 0.957471
379 1 0.412066 0.800108 0.0984079
380 1 0.451415 0.870186 0.0338583
381 1 0.50674 0.893107 0.0118051
382 1 0.509032 0.918208 0.0773345
383 1 0.567894 0.988257 0.082125
384 1 0.403622 0.889867 0.167571
385 1 0.576446 0.893032 0.0554844
386 1 0.695711 0.974469 0.0562431
387 1 0.580085 0.927722 0.107701
388 1 0.623102 0.942464 0.0319679
389 1 0.692446 0.870605 0.990017
390 1 0.765407 0.948412 0.016775
391 1 0.696526 0.854348 0.0580078
392 1 0.646297 0.906707 0.114215
393 1 0.739424 0.98154 0.944761
394 1 0.878847 0.906969 0.953428
395 1 0.74346 0.82612 0.0313178
396 1 0.788304 0.00393374 0.994069
397 1 0.912347 0.899326 0.0136999
398 1 0.971723 0.909416 0.99955
399 1 0.961829 0.856288 0.0313076
400 1 0.790507 0.911815 0.0640412
401 1 0.998607 0.962485 0.0129052
402 1 0.0579407 0.062847 0.09514
403 1 0.053402 0.99168 0.125547
404 1 0.997968 0.049354 0.107786
405 1 0.0682091 0.996256 0.188459
406 1 0.175987 0.029135 0.0927809
407 1 0.12547 0.00099931 0.159591
408 1 0.164264 0.101323 0.138323
409 1 0.213573 0.0387541 0.0424233
410 1 0.19407 0.0956776 0.0831926
411 1 0.196359 0.0187679 0.150461
412 1 0.236192 0.933357 0.149245
413 1 0.3585 0.992245 0.103924
414 1 0.334375 0.0627483 0.086289
415 1 0.288561 0.0126484 0.146597
416 1 0.237142 0.132042 0.133212
417 1 0.37383 0.871612 0.0800027
418 1 0.416377 0.990935 0.155219
419 1 0.496466 0.997692 0.280602
420 1 0.407255 0.0472299 0.184134
421 1 0.455928 0.927187 0.159492
422 1 0.597947 0.980775 0.14947
423 1 0.627972 0.901995 0.222384
424 1 0.483028 0.973575 0.199673
425 1 0.488371 0.963823 0.117219
426 1 0.598492 0.0454778 0.126182
427 1 0.718339 0.992849 0.147819
428 1 0.570976 0.119292 0.151182
429 1 0.754932 0.134063 0.110379
430 1 0.818679 0.0285412 0.0620837
431 1 0.768264 0.952279 0.133188
432 1 0.659133 0.0594087 0.144728
433 1 0.762561 0.997957 0.0909516
434 1 0.794299 0.0545615 0.131426
435 1 0.823119 0.96395 0.0575998
436 1 0.755114 0.0978717 0.18436
437 1 0.92864 0.938042 0.131774
438 1 0.93043 0.0481611 0.111501
439 1 0.990081 0.929738 0.124704
440 1 0.918574 0.00471552 0.149212
441 1 0.0103046 0.0538686 0.0196916
442 1 0.0275521 0.175699 0.983904
443 1 0.0278048 0.179736 0.0424451
444 1 0.0140787 0.154655 0.175539
445 1 0.0715658 0.0871746 0.0387553
446 1 0.115559 0.210545 0.194112
447 1 0.0561398 0.114102 0.195509
448 1 0.0345379 0.127847 0.0989728
449 1 0.148205 0.160275 0.156685
450 1 0.187039 0.170514 0.110362
451 1 0.22559 0.069836 0.147432
452 1 0.214826 0.110736 0.193457
453 1 0.23714 0.212075 0.113145
454 1 0.358379 0.195219 0.0747681
455 1 0.281023 0.101434 0.171576
456 1 0.250283 0.246485 0.163393
457 1 0.292772 0.122375 0.115099
458 1 0.398972 0.108165 0.0957123
459 1 0.519351 0.102248 0.102892
460 1 0.343251 0.146954 0.131594
461 1 0.425287 0.986989 0.0953834
462 1 0.486346 0.112477 0.230389
463 1 0.421169 0.993107 0.218685
464 1 0.508694 0.145095 0.165619
465 1 0.631311 0.983754 0.0879787
466 1 0.650696 0.236491 0.14625
467 1 0.54208 0.0584913 0.14951
468 1 0.570835 0.152266 0.203068
469 1 0.695831 0.0312599 0.0858629
470 1 0.675349 0.14801 0.0456673
471 1 0.846447 0.0860444 0.147839
472 1 0.624879 0.129535 0.111178
473 1 0.688513 0.0959734 0.0918019
474 1 0.797697 0.161332 0.0689264
475 1 0.883931 0.0902398 0.088914
476 1 0.812937 0.103313 0.0905643
477 1 0.872078 0.0230138 0.117884
478 1 0.972633 0.136169 0.111555
479 1 0.919179 0.119788 0.134646
480 1 0.914859 0.111696 0.0391227
481 1 0.031104 0.205664 0.11334
482 1 0.0874187 0.237647 0.132996
483 1 0.0797394 0.162743 0.157102
484 1 0.991461 0.246269 0.153793
485 1 0.122252 0.186836 0.100803
486 1 0.15987 0.287149 0.0915205
487 1 0.0839656 0.241854 0.246995
488 1 0.0794396 0.272047 0.191305
489 1 0.155501 0.219899 0.145321
490 1 0.192709 0.27071 0.136824
491 1 0.207507 0.188355 0.168724
492 1 0.151525 0.275655 0.186125
493 1 0.279655 0.179077 0.161194
494 1 0.366952 0.277855 0.0732684
495 1 0.346365 0.212312 0.176307
496 1 0.332253 0.267749 0.141042
497 1 0.370829 0.23095 0.998595
498 1 0.466106 0.153459 0.0663772
499 1 0.407525 0.193248 0.145513
500 1 0.414293 0.242547 0.0481582
501 1 0.453019 0.154032 0.131556
502 1 0.521069 0.19063 0.0666649
503 1 0.517692 0.20624 0.14076
504 1 0.439702 0.207577 0.0949057
505 1 0.526729 0.060147 0.0560742
506 1 0.69839 0.284165 0.119067
507 1 0.612672 0.193837 0.238039
508 1 0.573591 0.155846 0.0980232
509 1 0.736846 0.164783 0.183628
510 1 0.600052 0.208857 0.0452255
511 1 0.688799 0.14608 0.129571
512 1 0.656338 0.191186 0.0958232
513 1 0.786097 0.202849 0.133812
514 1 0.844374 0.191197 0.0933498
515 1 0.864887 0.147895 0.124872
516 1 0.830197 0.252851 0.126452
517 1 0.916933 0.162627 0.0856382
518 1 0.945715 0.247852 0.0977717
519 1 0.949747 0.179474 0.16365
520 1 0.838947 0.188526 0.164554
521 1 0.041934 0.287115 0.110666
522 1 0.048253 0.348039 0.0884284
523 1 0.982161 0.300172 0.198456
524 1 0.0106663 0.334795 0.147145
525 1 0.0988735 0.275829 0.0701555
526 1 0.165369 0.341524 0.0558246
527 1 0.10729 0.292462 0.136215
528 1 0.109467 0.338818 0.0889051
529 1 0.209401 0.331208 0.1051
530 1 0.274753 0.358408 0.0847326
531 1 0.229006 0.313619 0.16972
532 1 0.24231 0.380731 0.142042
533 1 0.248368 0.27375 0.0932716
534 1 0.321923 0.40667 0.0739169
535 1 0.367086 0.328801 0.117223
536 1 0.291576 0.322408 0.13697
537 1 0.436087 0.288835 0.0955236
538 1 0.440548 0.347623 0.115169
539 1 0.42044 0.297522 0.164417
540 1 0.392566 0.403143 0.145653
541 1 0.489819 0.250855 0.0992627
542 1 0.591724 0.284525 0.058673
543 1 0.518269 0.226633 0.196539
544 1 0.456098 0.409902 0.147556
545 1 0.583007 0.226192 0.114851
546 1 0.608357 0.351815 0.11265
547 1 0.611183 0.292184 0.126849
548 1 0.538041 0.276347 0.146599
549 1 0.683871 0.336662 0.0878349
550 1 0.741894 0.346267 0.123438
551 1 0.726236 0.297627 0.176542
552 1 0.668811 0.358509 0.151738
553 1 0.887767 0.247947 0.0715925
554 1 0.82973 0.344669 0.135624
555 1 0.88958 0.287916 0.116581
556 1 0.78831 0.334052 0.179214
557 1 0.92952 0.280837 0.0406411
558 1 0.924572 0.339485 0.0865862
559 1 0.952553 0.301694 0.144754
560 1 0.889111 0.358664 0.150838
561 1 0.0116607 0.394121 0.121774
562 1 0.0401474 0.456565 0.107501
563 1 0.0661152 0.384621 0.149603
564 1 0.985464 0.448019 0.151822
565 1 0.0825547 0.402183 0.0898336
566 1 0.135074 0.448606 0.0936136
567 1 0.141959 0.38448 0.118414
568 1 0.107505 0.429245 0.14354
569 1 0.19721 0.38916 0.082694
570 1 0.21046 0.445092 0.0641037
571 1 0.239231 0.440687 0.164515
572 1 0.184535 0.435531 0.138158
573 1 0.259088 0.418065 0.0978553
574 1 0.336557 0.456263 0.0494575
575 1 0.335354 0.387054 0.136923
576 1 0.31169 0.452408 0.146326
577 1 0.364719 0.445969 0.101603
578 1 0.446513 0.39612 0.0533231
579 1 0.428207 0.439644 0.0977809
580 1 0.367542 0.454915 0.167086
581 1 0.491875 0.381012 0.101607
582 1 0.517939 0.429971 0.0514573
583 1 0.557307 0.333924 0.141699
584 1 0.495519 0.441211 0.109258
585 1 0.554192 0.3995 0.110373
586 1 0.614939 0.452957 0.111702
587 1 0.609291 0.405593 0.152086
588 1 0.559688 0.437544 0.159095
589 1 0.648189 0.396375 0.0881539
590 1 0.730479 0.442527 0.084749
591 1 0.710611 0.398574 0.118989
592 1 0.663846 0.448344 0.161073
593 1 0.789628 0.362213 0.0814025
594 1 0.846069 0.433312 0.0967228
595 1 0.845191 0.404839 0.149092
596 1 0.78344 0.400372 0.131553
597 1 0.891986 0.389566 0.0859408
598 1 0.953665 0.437755 0.10141
599 1 0.952972 0.396186 0.150885
600 1 0.895598 0.444151 0.142595
601 1 0.989 0.497548 0.104847
602 1 0.0377011 0.54078 0.0996668
603 1 0.0335018 0.503871 0.146949
604 1 0.979144 0.536413 0.156895
605 1 0.0875589 0.496424 0.107759
606 1 0.132582 0.5372 0.101456
607 1 0.141959 0.49825 0.147474
608 1 0.0872834 0.544334 0.147456
609 1 0.181144 0.490307 0.0960097
610 1 0.277844 0.518632 0.152937
611 1 0.210159 0.502021 0.146333
612 1 0.201884 0.565212 0.149234
613 1 0.26508 0.494401 0.0916292
614 1 0.370017 0.553996 0.0903501
615 1 0.327069 0.49654 0.110426
616 1 0.322408 0.569212 0.145899
617 1 0.389999 0.501554 0.0977215
618 1 0.437519 0.545729 0.124654
619 1 0.433898 0.487991 0.139021
620 1 0.366593 0.527366 0.150849
621 1 0.499405 0.508573 0.121498
622 1 0.56127 0.531493 0.106045
623 1 0.532903 0.491126 0.195411
624 1 0.499843 0.537717 0.174183
625 1 0.556296 0.470302 0.0941285
626 1 0.632707 0.513498 0.113696
627 1 0.614415 0.469306 0.191202
628 1 0.591967 0.531171 0.16667
629 1 0.675426 0.475827 0.0868691
630 1 0.730396 0.524022 0.11153
631 1 0.750596 0.468166 0.154101
632 1 0.685524 0.511107 0.164414
633 1 0.78374 0.482373 0.102685
634 1 0.827605 0.530831 0.108915
635 1 0.83165 0.47438 0.15703
636 1 0.77809 0.522925 0.15838
637 1 0.884341 0.495711 0.105824
638 1 0.934605 0.538325 0.0981546
639 1 0.931766 0.494097 0.153963
640 1 0.881529 0.528548 0.156981
641 1 0.972078 0.587718 0.0896777
642 1 0.0370367 0.639773 0.102019
643 1 0.0333541 0.590385 0.135645
644 1 0.98371 0.635544 0.137899
645 1 0.0848895 0.59497 0.110469
646 1 0.232714 0.642199 0.109284
647 1 0.143469 0.586491 0.153095
648 1 0.115052 0.648032 0.144888
649 1 0.230448 0.549747 0.0890599
650 1 0.28018 0.615249 0.0621077
651 1 0.256882 0.590502 0.136306
652 1 0.242426 0.675016 0.0577751
653 1 0.31133 0.555936 0.0837627
654 1 0.333056 0.610545 0.101876
655 1 0.383703 0.599625 0.133848
656 1 0.377008 0.631337 0.184254
657 1 0.435987 0.593041 0.07729
658 1 0.50481 0.63362 0.140303
659 1 0.460845 0.593197 0.149377
660 1 0.437971 0.637448 0.182191
661 1 0.507857 0.57248 0.108242
662 1 0.550869 0.623479 0.104285
663 1 0.549892 0.576292 0.151844
664 1 0.492409 0.609908 0.213062
665 1 0.601387 0.582879 0.117739
666 1 0.67662 0.620259 0.121379
667 1 0.65032 0.564653 0.152226
668 1 0.618414 0.619379 0.17215
669 1 0.685898 0.563295 0.104643
670 1 0.734692 0.638642 0.105124
671 1 0.723518 0.569917 0.166958
672 1 0.682091 0.611872 0.191896
673 1 0.773711 0.576282 0.106958
674 1 0.820493 0.63288 0.116664
675 1 0.834997 0.581826 0.15157
676 1 0.774542 0.620919 0.15811
677 1 0.883836 0.588771 0.105644
678 1 0.931031 0.641261 0.0942301
679 1 0.942553 0.589603 0.147993
680 1 0.88104 0.635164 0.154377
681 1 0.988779 0.694613 0.109402
682 1 0.0314279 0.734771 0.06143
683 1 0.0368041 0.672322 0.152103
684 1 0.965036 0.741338 0.142476
685 1 0.113101 0.66657 0.0814566
686 1 0.17469 0.682543 0.058958
687 1 0.171983 0.647278 0.117059
688 1 0.141207 0.70804 0.118743
689 1 0.281139 0.714625 0.0224765
690 1 0.304051 0.773135 0.112657
691 1 0.202416 0.70878 0.120223
692 1 0.186485 0.837274 0.073936
693 1 0.360308 0.667608 0.1258
694 1 0.368584 0.749165 0.137142
695 1 0.432141 0.650176 0.114582
696 1 0.413813 0.699141 0.16522
697 1 0.408086 0.71639 0.101048
698 1 0.421264 0.798811 0.169831
699 1 0.47464 0.682987 0.159855
700 1 0.394638 0.76031 0.285046
701 1 0.570267 0.735126 0.0733274
702 1 0.582756 0.838971 0.0353492
703 1 0.569606 0.654499 0.151573
704 1 0.475702 0.717326 0.098019
705 1 0.572446 0.672327 0.0624056
706 1 0.633055 0.704241 0.0677617
707 1 0.659459 0.669676 0.162806
708 1 0.611596 0.70291 0.127971
709 1 0.689095 0.680867 0.101204
710 1 0.787659 0.74954 0.11221
711 1 0.72204 0.658562 0.163675
712 1 0.723788 0.721957 0.134047
713 1 0.772317 0.677099 0.133095
714 1 0.866949 0.760155 0.104291
715 1 0.824639 0.672864 0.164862
716 1 0.789937 0.730443 0.17513
717 1 0.869985 0.693269 0.107405
718 1 0.920565 0.73175 0.104209
719 1 0.924841 0.682524 0.144715
720 1 0.868819 0.729471 0.158274
721 1 0.966339 0.778619 0.090889
722 1 0.0957517 0.90702 0.0595353
723 1 0.0676767 0.70772 0.105567
724 1 0.0213983 0.754519 0.115428
725 1 0.0885746 0.796808 0.0971942
726 1 0.156176 0.904609 0.0796734
727 1 0.0424196 0.833144 0.171275
728 1 0.0780257 0.857921 0.12098
729 1 0.125759 0.845113 0.0638082
730 1 0.204106 0.886292 0.114548
731 1 0.214752 0.784947 0.211504
732 1 0.235807 0.764947 0.141429
733 1 0.311854 0.773261 0.0515606
734 1 0.260312 0.820353 0.105507
735 1 0.299506 0.685496 0.216355
736 1 0.304332 0.818272 0.160352
737 1 0.342184 0.700422 0.172168
738 1 0.478507 0.881533 0.129782
739 1 0.426525 0.864888 0.101347
740 1 0.276822 0.793144 0.230592
741 1 0.476725 0.794079 0.0692738
742 1 0.523906 0.851476 0.171564
743 1 0.487706 0.821128 0.129138
744 1 0.507017 0.935633 0.253883
745 1 0.57122 0.813228 0.152856
746 1 0.639283 0.880643 0.0558861
747 1 0.637986 0.82617 0.147765
748 1 0.519406 0.765548 0.120683
749 1 0.699629 0.723381 0.0607887
750 1 0.743517 0.835596 0.100104
751 1 0.764385 0.791078 0.154566
752 1 0.692697 0.792224 0.112927
753 1 0.812597 0.810447 0.101809
754 1 0.795776 0.849824 0.0481196
755 1 0.832516 0.7793 0.171226
756 1 0.799516 0.835757 0.196354
757 1 0.929588 0.836862 0.0798894
758 1 0.951154 0.843842 0.137546
759 1 0.915235 0.791212 0.136674
760 1 0.851716 0.845014 0.164189
761 1 0.0137482 0.82561 0.116208
762 1 0.0508594 0.96071 0.0498567
763 1 0.025214 0.978427 0.23728
764 1 0.0604281 0.917728 0.108266
765 1 0.120266 0.923328 0.124034
766 1 0.106322 0.986624 0.0940518
767 1 0.17432 0.00344917 0.205809
768 1 0.109324 0.945484 0.188336
769 1 0.201429 0.890862 0.183645
770 1 0.260351 0.991133 0.0398106
771 1 0.263424 0.871981 0.13298
772 1 0.136632 0.891183 0.171865
773 1 0.336135 0.890155 0.133699
774 1 0.315324 0.953583 0.13566
775 1 0.294352 0.853681 0.211728
776 1 0.300358 0.985363 0.205079
777 1 0.396026 0.932369 0.113879
778 1 0.445126 0.979615 0.0261511
779 1 0.370552 0.83842 0.137135
780 1 0.352386 0.86448 0.0137594
781 1 0.4502 0.923125 0.0842067
782 1 0.535894 0.919644 0.164599
783 1 0.547529 0.886463 0.236053
784 1 0.546402 0.96503 0.213227
785 1 0.585541 0.752907 0.143834
786 1 0.591644 0.883095 0.15859
787 1 0.586716 0.833367 0.214945
788 1 0.533862 0.985135 0.156678
789 1 0.694049 0.869985 0.120104
790 1 0.746345 0.902155 0.107843
791 1 0.783367 0.85342 0.144315
792 1 0.591838 0.866789 0.269422
793 1 0.820375 0.873083 0.100101
794 1 0.688346 0.918288 0.0361597
795 1 0.883513 0.888141 0.120793
796 1 0.836405 0.936693 0.112849
797 1 0.873964 0.832497 0.107274
798 1 0.00869727 0.92395 0.068498
799 1 0.9415 0.909843 0.0737945
800 1 0.864234 0.891387 0.0549138
801 1 0.981493 0.993927 0.149121
802 1 0.0292635 0.0411129 0.178469
803 1 0.968039 0.00589241 0.221744
804 1 0.0528637 0.995024 0.309794
805 1 0.050928 0.936179 0.165399
806 1 0.0882088 0.0669334 0.183415
807 1 0.166072 0.992244 0.273061
808 1 0.109386 0.0214359 0.286192
809 1 0.258759 0.906859 0.20489
810 1 0.242956 0.988567 0.178013
811 1 0.185745 0.0484971 0.263691
812 1 0.097209 0.104717 0.13577
813 1 0.303859 0.0545057 0.211307
814 1 0.257458 0.0238163 0.255354
815 1 0.433663 0.0725803 0.350187
816 1 0.335776 0.0544123 0.290525
817 1 0.399681 0.0613455 0.264382
818 1 0.442351 0.931811 0.233511
819 1 0.560505 0.00725064 0.249423
820 1 0.377081 0.105301 0.309436
821 1 0.611439 0.968281 0.212558
822 1 0.51895 0.0386987 0.209244
823 1 0.614855 0.969085 0.302286
824 1 0.548389 0.0367379 0.318257
825 1 0.652647 0.00520644 0.166565
826 1 0.730048 0.0603006 0.132526
827 1 0.678909 0.00322853 0.225856
828 1 0.655989 0.0682142 0.218137
829 1 0.714745 0.0486879 0.194827
830 1 0.807553 0.0677783 0.206938
831 1 0.809109 0.967966 0.187023
832 1 0.76282 0.0724693 0.304429
833 1 0.818601 0.994269 0.129325
834 1 0.903495 0.0183985 0.224776
835 1 0.809918 0.00528708 0.232885
836 1 0.751726 0.0383799 0.255239
837 1 0.959272 0.911449 0.190433
838 1 0.958959 0.0582159 0.168812
839 1 0.924499 0.957861 0.206492
840 1 0.872431 0.0831415 0.231459
841 1 0.0087451 0.0978183 0.151999
842 1 0.0642141 0.176813 0.218444
843 1 0.039125 0.128745 0.25545
844 1 0.985423 0.186509 0.230134
845 1 0.00496 0.0845107 0.222939
846 1 0.177719 0.155683 0.226014
847 1 0.0917965 0.0865286 0.248832
848 1 0.147255 0.0638329 0.316882
849 1 0.174406 0.0661449 0.194755
850 1 0.313823 0.170982 0.213686
851 1 0.219445 0.0545042 0.317644
852 1 0.13005 0.116043 0.193376
853 1 0.237222 0.0492743 0.207326
854 1 0.347277 0.0874744 0.146333
855 1 0.360406 0.106387 0.202637
856 1 0.286561 0.108663 0.236209
857 1 0.357735 0.0343878 0.223408
858 1 0.397485 0.123226 0.160075
859 1 0.445275 0.0235084 0.289314
860 1 0.415013 0.122937 0.239916
861 1 0.46056 0.102924 0.173414
862 1 0.52511 0.121371 0.282836
863 1 0.461538 0.0458745 0.228123
864 1 0.457442 0.165212 0.208722
865 1 0.577976 0.0689705 0.268654
866 1 0.61882 0.108236 0.186886
867 1 0.666898 0.127435 0.243611
868 1 0.655001 0.244054 0.207673
869 1 0.694267 0.109438 0.179198
870 1 0.758681 0.162133 0.24731
871 1 0.774722 0.0984904 0.25392
872 1 0.714969 0.08763 0.239423
873 1 0.854758 0.0287696 0.1902
874 1 0.884295 0.147829 0.181451
875 1 0.818471 0.0579896 0.27834
876 1 0.811369 0.138628 0.214116
877 1 0.901264 0.0724256 0.173553
878 1 0.959843 0.120121 0.204305
879 1 0.00539431 0.153167 0.3032
880 1 0.910501 0.122127 0.253071
881 1 0.971949 0.256642 0.308982
882 1 0.0487148 0.215331 0.175752
883 1 0.152643 0.103695 0.257867
884 1 0.0299484 0.227885 0.270894
885 1 0.112845 0.148482 0.244963
886 1 0.0216532 0.255633 0.219071
887 1 0.154915 0.17131 0.292744
888 1 0.10076 0.197073 0.291274
889 1 0.210943 0.181085 0.276742
890 1 0.147924 0.220143 0.253743
891 1 0.213335 0.238928 0.214884
892 1 0.181431 0.277259 0.256551
893 1 0.382431 0.174777 0.204432
894 1 0.379333 0.330793 0.188497