ITEM: TIMESTEP
12400
ITEM: NUMBER OF ATOMS
4000
ITEM: BOX BOUNDS pp pp pp
0.0000000000000000e+00 1.6795961913825074e+01
0.0000000000000000e+00 1.6795961913825074e+01
0.0000000000000000e+00 1.6795961913825074e+01
ITEM: ATOMS id type xs ys zs
1 1 0.996141 1.00112 0.00436922
2 1 0.048535 0.0505925 0.0017461
3 1 0.0432654 1.00034 0.04748
4 1 0.999153 0.0488413 0.055493
5 1 0.0962788 0.998474 0.00452622
6 1 0.150126 0.0508731 0.994898
7 1 0.14157 0.994107 0.0492014
8 1 0.0962288 0.0525655 0.0481267
9 1 0.20109 0.996684 0.00790156
10 1 0.244133 0.0499691 -0.000311916
11 1 0.249854 0.995125 0.0542463
12 1 0.185223 0.0535285 0.0472075
13 1 0.294152 0.997471 0.00514317
14 1 0.351113 0.0574435 0.00178973
15 1 0.347635 0.998607 0.0484026
16 1 0.301502 0.048807 0.0561487
17 1 0.398774 0.00169926 0.998532
18 1 0.441246 0.0495231 0.0034589
19 1 0.442964 0.99815 0.0545535
20 1 0.395868 0.0441472 0.0534567
21 1 0.494344 1.00039 0.994924
22 1 0.554557 0.0477633 0.998621
23 1 0.548459 -0.000534105 0.047743
24 1 0.504844 0.0486109 0.0420935
25 1 0.601309 0.992111 0.996635
26 1 0.64797 0.0466103 0.00971045
27 1 0.649274 0.992776 0.0524403
28 1 0.594455 0.0539502 0.0579825
29 1 0.704703 0.000306755 0.00519713
30 1 0.751888 0.0457769 0.000474738
31 1 0.749802 0.000448254 0.0538821
32 1 0.700483 0.0463169 0.0547264
33 1 0.799656 0.992971 0.00132276
34 1 0.845057 0.0467677 0.00275602
35 1 0.849692 0.999878 0.0512796
36 1 0.797664 0.0529126 0.0577013
37 1 0.895102 0.000488749 0.000394547
38 1 0.945321 0.0521821 0.000437968
39 1 0.945186 1.00114 0.0584014
40 1 0.895783 0.0480859 0.0507546
41 1 0.99689 0.100144 -0.000618268
42 1 0.0462478 0.150277 0.00966969
43 1 0.0396297 0.0992308 0.0503824
44 1 0.992515 0.145077 0.0543861
45 1 0.0935712 0.104058 0.999635
46 1 0.143773 0.149808 0.0058837
47 1 0.139512 0.101688 0.0517885
48 1 0.0921975 0.151392 0.0541156
49 1 0.194177 0.104321 0.00119444
50 1 0.248032 0.146401 1.00037
51 1 0.250285 0.100761 0.0509273
52 1 0.196388 0.153839 0.0550336
53 1 0.297697 0.0935994 1.00222
54 1 0.35072 0.143795 0.992874
55 1 0.348205 0.106447 0.0458558
56 1 0.293527 0.151893 0.0504397
57 1 0.399422 0.0999731 0.996418
58 1 0.445303 0.150149 0.994631
59 1 0.444731 0.0982766 0.0490303
60 1 0.40038 0.150133 0.0538912
61 1 0.49444 0.0928269 0.994725
62 1 0.544215 0.146172 0.000964187
63 1 0.548439 0.105897 0.053075
64 1 0.49235 0.150312 0.049813
65 1 0.609015 0.0975842 0.00171535
66 1 0.64752 0.151309 0.00140065
67 1 0.651235 0.099635 0.0557333
68 1 0.606232 0.153779 0.0509352
69 1 0.693675 0.0993155 0.00317933
70 1 0.743154 0.148588 0.999104
71 1 0.748242 0.0997333 0.0497058
72 1 0.701734 0.1481 0.0476249
73 1 0.801677 0.0980254 0.00512496
74 1 0.854674 0.15755 0.00119045
75 1 0.850535 0.0995409 0.0470197
76 1 0.801458 0.157866 0.0479483
77 1 0.897522 0.10276 0.996673
78 1 0.948504 0.15281 0.998296
79 1 0.946689 0.101191 0.0490055
80 1 0.899534 0.144035 0.052573
81 1 0.998757 0.196651 0.00566
82 1 0.0463415 0.251298 0.00296101
83 1 0.0449712 0.199749 0.0532663
84 1 0.995736 0.248689 0.0523658
85 1 0.0976966 0.197166 0.00406421
86 1 0.150479 0.250666 0.00654539
87 1 0.146926 0.206289 0.0531952
88 1 0.0964763 0.247658 0.0529024
89 1 0.197151 0.196253 0.00676003
90 1 0.243125 0.244147 0.00595503
91 1 0.245826 0.198285 0.0537386
92 1 0.203949 0.247991 0.0587355
93 1 0.300802 0.189604 0.999783
94 1 0.346419 0.246096 0.992173
95 1 0.348412 0.194651 0.0490802
96 1 0.298212 0.258376 0.0520335
97 1 0.397221 0.195301 0.999912
98 1 0.447379 0.242772 0.998548
99 1 0.44456 0.201071 0.050163
100 1 0.400716 0.245975 0.0534648
101 1 0.499325 0.193007 0.993835
102 1 0.552097 0.248469 0.998628
103 1 0.548093 0.196852 0.0481094
104 1 0.504479 0.24477 0.0519386
105 1 0.602243 0.1988 0.998932
106 1 0.65129 0.245807 0.00447444
107 1 0.654807 0.204203 0.0570387
108 1 0.598412 0.249019 0.0491369
109 1 0.696642 0.198947 0.999045
110 1 0.746804 0.250469 0.997086
111 1 0.74709 0.199033 0.0449588
112 1 0.694598 0.263525 0.0497852
113 1 0.797173 0.200187 0.994661
114 1 0.842548 0.255605 1.00029
115 1 0.849522 0.20318 0.0537425
116 1 0.793566 0.251886 0.0532099
117 1 0.899348 0.200435 0.00568921
118 1 0.948209 0.24296 0.00775797
119 1 0.945936 0.193561 0.0562979
120 1 0.894328 0.249309 0.0556323
121 1 0.00354244 0.299403 0.997252
122 1 0.0484656 0.346622 0.995302
123 1 0.0456579 0.293294 0.0579648
124 1 0.998423 0.345273 0.0517718
125 1 0.0952199 0.302804 0.00202587
126 1 0.149947 0.341253 0.999132
127 1 0.148379 0.295792 0.0567643
128 1 0.0964185 0.349337 0.0494357
129 1 0.200477 0.299057 0.000539995
130 1 0.246675 0.348759 0.00212225
131 1 0.249351 0.302425 0.0532481
132 1 0.196499 0.346793 0.0504137
133 1 0.298033 0.298623 1.00101
134 1 0.342403 0.347373 0.00158961
135 1 0.350636 0.300907 0.0510756
136 1 0.296799 0.352172 0.0511342
137 1 0.397716 0.299969 0.00191249
138 1 0.446883 0.347078 0.996632
139 1 0.446027 0.30206 0.0461714
140 1 0.398142 0.351077 0.0487501
141 1 0.496988 0.293657 0.000278608
142 1 0.549146 0.341562 0.992531
143 1 0.548691 0.294789 0.0529404
144 1 0.499651 0.340073 0.0520355
145 1 0.600404 0.299112 0.994227
146 1 0.650539 0.347208 0.998148
147 1 0.64275 0.302721 0.0432012
148 1 0.599972 0.355647 0.0527951
149 1 0.696175 0.299228 0.990371
150 1 0.739646 0.346178 0.995246
151 1 0.748915 0.306599 0.0511753
152 1 0.695186 0.351467 0.0420081
153 1 0.792796 0.303617 0.00166416
154 1 0.849365 0.346305 0.000289281
155 1 0.841023 0.299179 0.0520848
156 1 0.79867 0.359704 0.054362
157 1 0.895943 0.297743 0.00177618
158 1 0.949006 0.347975 0.00412302
159 1 0.951909 0.291984 0.0509228
160 1 0.895723 0.347102 0.0589089
161 1 0.991957 0.398535 -0.000222674
162 1 0.0493371 0.445051 0.00127605
163 1 0.0474575 0.394735 0.0516522
164 1 0.00304515 0.444593 0.0517001
165 1 0.0960988 0.396926 0.00635186
166 1 0.147833 0.448344 0.999306
167 1 0.148101 0.400279 0.0505504
168 1 0.100327 0.446559 0.0483376
169 1 0.194242 0.402161 -0.00220674
170 1 0.244254 0.4544 0.00250711
171 1 0.243434 0.403567 0.0522443
172 1 0.196226 0.445462 0.0498027
173 1 0.294598 0.396735 0.00484523
174 1 0.338815 0.444703 0.998448
175 1 0.342961 0.405465 0.0552487
176 1 0.292574 0.452919 0.0486754
177 1 0.394888 0.397147 0.0029
178 1 0.446546 0.441717 0.995483
179 1 0.446035 0.400392 0.0485321
180 1 0.391564 0.448978 0.0471448
181 1 0.496799 0.392574 0.99465
182 1 0.541611 0.44667 0.996464
183 1 0.544024 0.395905 0.0371217
184 1 0.493352 0.446156 0.0449704
185 1 0.603264 0.395027 0.997776
186 1 0.64979 0.452841 0.996374
187 1 0.647828 0.409078 0.0513874
188 1 0.598044 0.454172 0.0481565
189 1 0.694141 0.40241 0.998918
190 1 0.746563 0.44972 0.00507773
191 1 0.739462 0.407877 0.0510099
192 1 0.693474 0.458435 0.0544604
193 1 0.789833 0.40408 0.00293628
194 1 0.848886 0.44912 0.00267017
195 1 0.84836 0.401794 0.0491187
196 1 0.794769 0.446633 0.054714
197 1 0.897121 0.40462 0.00907147
198 1 0.949286 0.448248 0.00672798
199 1 0.95349 0.393903 0.0561812
200 1 0.89901 0.450643 0.0532379
201 1 0.99505 0.498199 0.997151
202 1 0.0480211 0.544493 0.00514323
203 1 0.0409641 0.494917 0.0489066
204 1 0.996797 0.552663 0.0470234
205 1 0.0956521 0.499662 0.00165774
206 1 0.147529 0.547583 0.0017501
207 1 0.147023 0.501758 0.0487339
208 1 0.0986019 0.553592 0.0435373
209 1 0.195161 0.493211 -0.00116705
210 1 0.243175 0.54528 0.999048
211 1 0.246689 0.498463 0.0552257
212 1 0.198508 0.548105 0.0467168
213 1 0.29488 0.50492 0.00161803
214 1 0.344064 0.55189 0.00468404
215 1 0.344306 0.497824 0.0481844
216 1 0.298957 0.549313 0.0536616
217 1 0.39707 0.497575 0.995732
218 1 0.454291 0.549395 0.00443479
219 1 0.447535 0.496674 0.044887
220 1 0.398593 0.542689 0.0508496
221 1 0.497315 0.500051 0.999471
222 1 0.552441 0.547927 0.997663
223 1 0.549381 0.494829 0.0453969
224 1 0.503155 0.541307 0.0504584
225 1 0.598273 0.497381 0.995474
226 1 0.644623 0.543671 0.00282743
227 1 0.645565 0.502109 0.0558379
228 1 0.591575 0.543809 0.051051
229 1 0.698897 0.501395 0.00232703
230 1 0.747224 0.550465 0.00160339
231 1 0.750008 0.49535 0.0563544
232 1 0.698521 0.550099 0.0474289
233 1 0.805502 0.499877 -0.00276008
234 1 0.847809 0.556201 -0.000360245
235 1 0.846558 0.498239 0.0529364
236 1 0.799402 0.551876 0.0461476
237 1 0.894726 0.498644 0.00492708
238 1 0.946045 0.548349 0.00374253
239 1 0.955293 0.495139 0.0552953
240 1 0.901105 0.549295 0.0499632
241 1 0.00306287 0.600056 0.996121
242 1 0.0467131 0.652052 1.00026
243 1 0.0520979 0.601455 0.0459412
244 1 0.998408 0.641879 0.0486467
245 1 0.0964856 0.600727 0.997081
246 1 0.147174 0.650928 0.998516
247 1 0.14726 0.598453 0.0439475
248 1 0.0966772 0.647888 0.0549561
249 1 0.198731 0.593898 0.00171769
250 1 0.252247 0.644893 0.00471771
251 1 0.246676 0.595671 0.0477723
252 1 0.19864 0.650279 0.0457243
253 1 0.292242 0.588454 1.00203
254 1 0.35035 0.644328 0.000692949
255 1 0.357048 0.598322 0.0520495
256 1 0.296892 0.642692 0.0523208
257 1 0.400496 0.596334 0.999448
258 1 0.452331 0.642345 -0.000432602
259 1 0.445757 0.591113 0.053568
260 1 0.401849 0.647916 0.0479101
261 1 0.502607 0.595012 0.00241532
262 1 0.544415 0.64418 0.99603
263 1 0.551848 0.595975 0.0496728
264 1 0.501717 0.642279 0.048875
265 1 0.596233 0.603633 0.999804
266 1 0.647353 0.647549 0.000377436
267 1 0.648082 0.59434 0.0477007
268 1 0.594752 0.650499 0.053718
269 1 0.699119 0.601447 1.00065
270 1 0.739936 0.654973 0.0116096
271 1 0.745344 0.596787 0.0554756
272 1 0.69661 0.644136 0.0581845
273 1 0.800924 0.601322 0.998346
274 1 0.849029 0.645955 0.996997
275 1 0.849062 0.601116 0.0538896
276 1 0.797618 0.643566 0.0529928
277 1 0.899309 0.60515 0.00252015
278 1 0.947292 0.647431 -0.00245388
279 1 0.949564 0.599957 0.0445444
280 1 0.892916 0.649267 0.0500191
281 1 0.997103 0.696016 -0.000168937
282 1 0.0486815 0.743467 0.0031275
283 1 0.0495095 0.69919 0.0543367
284 1 0.00177857 0.749787 0.05533
285 1 0.10049 0.696992 0.00181471
286 1 0.14692 0.745514 0.00400194
287 1 0.149448 0.694936 0.0529044
288 1 0.100047 0.743839 0.0478889
289 1 0.198064 0.702016 0.99676
290 1 0.248155 0.748208 0.996384
291 1 0.247144 0.699609 0.0474095
292 1 0.19768 0.751925 0.045242
293 1 0.303001 0.693493 0.998331
294 1 0.348029 0.750383 0.00365937
295 1 0.346076 0.695962 0.0590833
296 1 0.301984 0.741762 0.0524683
297 1 0.400973 0.692637 0.993916
298 1 0.448105 0.747401 0.00504833
299 1 0.450854 0.692222 0.0530644
300 1 0.399766 0.745293 0.0538562
301 1 0.491515 0.696574 0.995757
302 1 0.549859 0.743721 0.00395957
303 1 0.546058 0.698082 0.0497799
304 1 0.498831 0.748117 0.0491675
305 1 0.597965 0.696727 0.000260918
306 1 0.645164 0.744362 0.00130953
307 1 0.647699 0.694018 0.048866
308 1 0.599035 0.746435 0.0470058
309 1 0.701754 0.703424 0.00309979
310 1 0.74517 0.751442 0.00167263
311 1 0.752391 0.703524 0.0507022
312 1 0.699468 0.757269 0.0533106
313 1 0.802825 0.696466 0.00201891
314 1 0.851004 0.746192 0.00416965
315 1 0.847085 0.691544 0.0513681
316 1 0.804999 0.74912 0.0496676
317 1 0.897469 0.693827 0.00234454
318 1 0.943954 0.742564 0.00918445
319 1 0.948108 0.692438 0.0466614
320 1 0.89557 0.742776 0.056841
321 1 0.994069 0.802958 0.00487317
322 1 0.0450233 0.847701 1.00051
323 1 0.0550582 0.787721 0.0478609
324 1 0.99455 0.849054 0.0490305
325 1 0.0970445 0.791202 0.99805
326 1 0.149593 0.851188 0.00045894
327 1 0.152381 0.799286 0.0423419
328 1 0.0914776 0.841799 0.0507621
329 1 0.203799 0.800248 1.0004
330 1 0.249836 0.845022 0.995791
331 1 0.249808 0.79803 0.0551148
332 1 0.203518 0.850321 0.0482115
333 1 0.299734 0.797748 0.00329666
334 1 0.345428 0.847426 0.000529407
335 1 0.347178 0.797586 0.0517721
336 1 0.297064 0.851732 0.0509058
337 1 0.399372 0.798942 0.00183324
338 1 0.439069 0.847865 0.00339811
339 1 0.447048 0.79737 0.0558694
340 1 0.395476 0.850659 0.0566074
341 1 0.488617 0.798455 0.00233593
342 1 0.543529 0.852932 -0.00114658
343 1 0.543366 0.804824 0.0578158
344 1 0.488448 0.856472 0.0497198
345 1 0.593057 0.803391 0.0113477
346 1 0.64257 0.847405 0.00179174
347 1 0.644155 0.797505 0.0574521
348 1 0.591522 0.849146 0.0550904
349 1 0.702532 0.802117 0.998783
350 1 0.747185 0.850777 0.00264153
351 1 0.753299 0.796295 0.0522224
352 1 0.696883 0.845784 0.0580444
353 1 0.802746 0.799921 0.00584124
354 1 0.849525 0.853074 0.00582792
355 1 0.85031 0.79764 0.0506015
356 1 0.799377 0.849082 0.0539164
357 1 0.899071 0.798655 0.00319158
358 1 0.94404 0.84865 0.00251307
359 1 0.947626 0.793769 0.0506859
360 1 0.898503 0.849753 0.0545024
361 1 0.995154 0.902206 0.00373105
362 1 0.0460144 0.947415 0.00647771
363 1 0.0513479 0.899955 0.0566189
364 1 0.992847 0.947861 0.0576622
365 1 0.0994084 0.899253 0.00448197
366 1 0.142793 0.949534 0.00114349
367 1 0.142519 0.900311 0.0524858
368 1 0.0900601 0.948977 0.0562828
369 1 0.191592 0.901041 0.00522509
370 1 0.24474 0.948415 0.0017056
371 1 0.24503 0.902926 0.0507933
372 1 0.191957 0.946778 0.055777
373 1 0.299591 0.897232 0.999059
374 1 0.341675 0.950577 1.00019
375 1 0.343436 0.900853 0.0469098
376 1 0.296198 0.946867 0.0465274
377 1 0.391413 0.895449 0.00326723
378 1 0.443815 0.951219 0.999817
379 1 0.442361 0.903429 0.044397
380 1 0.394749 0.950744 0.0444976
381 1 0.491859 0.903514 0.997879
382 1 0.546441 0.952871 0.998768
383 1 0.542868 0.906251 0.0481272
384 1 0.496658 0.954182 0.0477884
385 1 0.593253 0.899658 0.00424439
386 1 0.646085 0.941748 0.00407542
387 1 0.646113 0.892876 0.056818
388 1 0.594214 0.944536 0.0479573
389 1 0.69828 0.896583 0.00718353
390 1 0.748823 0.9519 0.00257719
391 1 0.754265 0.905153 0.0473667
392 1 0.697649 0.948137 0.0481575
393 1 0.799494 0.8966 0.000994572
394 1 0.847832 0.948964 -0.000105346
395 1 0.847134 0.905024 0.0495981
396 1 0.801841 0.950726 0.0535412
397 1 0.901727 0.904764 0.00556607
398 1 0.948197 0.949929 0.00124022
399 1 0.944684 0.899284 0.0513448
400 1 0.898228 0.952256 0.0522671
401 1 0.996429 0.995813 0.10162
402 1 0.045722 0.0468528 0.104435
403 1 0.044554 0.00157551 0.153861
404 1 0.996332 0.0433725 0.155658
405 1 0.0977293 0.00593631 0.100152
406 1 0.142941 0.0544936 0.0997924
407 1 0.142409 0.00199287 0.149148
408 1 0.0891725 0.0506208 0.152565
409 1 0.191423 0.0025757 0.102814
410 1 0.243844 0.0473114 0.0999093
411 1 0.24574 0.997717 0.147926
412 1 0.192442 0.0521628 0.155771
413 1 0.303052 0.997767 0.097931
414 1 0.351567 0.0504907 0.103583
415 1 0.355014 -0.000937048 0.151071
416 1 0.298593 0.0498283 0.151618
417 1 0.395212 0.996138 0.0967262
418 1 0.449453 0.0531105 0.095785
419 1 0.445743 0.996852 0.152176
420 1 0.406613 0.0481582 0.156702
421 1 0.500281 0.997365 0.102941
422 1 0.541325 0.0578948 0.0991161
423 1 0.549634 0.998017 0.157356
424 1 0.503393 0.0443462 0.153152
425 1 0.594844 0.991032 0.10217
426 1 0.647187 0.0487667 0.103248
427 1 0.6479 0.99257 0.14819
428 1 0.595272 0.0422228 0.152373
429 1 0.697558 0.00017955 0.102744
430 1 0.747698 0.0503656 0.104934
431 1 0.745526 0.998898 0.155456
432 1 0.694025 0.0477624 0.150454
433 1 0.800904 1.00184 0.100761
434 1 0.849729 0.0491764 0.104785
435 1 0.845938 0.998829 0.150472
436 1 0.796454 0.0488685 0.149683
437 1 0.898503 0.998291 0.104793
438 1 0.948191 0.0454368 0.103725
439 1 0.948648 0.997899 0.151134
440 1 0.892146 0.0542422 0.153113
441 1 0.99391 0.0967372 0.102373
442 1 0.0529569 0.154799 0.10462
443 1 0.0512927 0.100946 0.157719
444 1 1.00121 0.147762 0.14965
445 1 0.0926876 0.0987989 0.10477
446 1 0.141445 0.148304 0.103167
447 1 0.140698 0.0967299 0.149065
448 1 0.0969793 0.150318 0.158134
449 1 0.19048 0.101313 0.104285
450 1 0.25213 0.148064 0.105194
451 1 0.255808 0.0980694 0.147802
452 1 0.203949 0.144611 0.152617
453 1 0.304327 0.101859 0.105131
454 1 0.357312 0.149789 0.101205
455 1 0.353639 0.0988208 0.153563
456 1 0.297828 0.147405 0.156292
457 1 0.401266 0.100209 0.104634
458 1 0.451421 0.145736 0.0975649
459 1 0.45242 0.0980009 0.152874
460 1 0.404514 0.151431 0.149839
461 1 0.499423 0.104033 0.105047
462 1 0.541656 0.155251 0.0996906
463 1 0.541579 0.101894 0.154447
464 1 0.494577 0.157027 0.151279
465 1 0.598624 0.1011 0.105951
466 1 0.650172 0.141837 0.100856
467 1 0.646266 0.0965237 0.147947
468 1 0.595078 0.150524 0.148831
469 1 0.699171 0.0983598 0.102993
470 1 0.748534 0.148514 0.100459
471 1 0.748074 0.0949912 0.154719
472 1 0.698326 0.144363 0.150922
473 1 0.798394 0.103397 0.0968517
474 1 0.848311 0.153889 0.0996953
475 1 0.846849 0.101256 0.1557
476 1 0.793848 0.146627 0.152818
477 1 0.892299 0.103321 0.104494
478 1 0.947021 0.147401 0.106886
479 1 0.94645 0.0983312 0.148756
480 1 0.897437 0.150146 0.149982
481 1 0.993136 0.197379 0.101452
482 1 0.0477972 0.245617 0.103663
483 1 0.0505517 0.196992 0.155481
484 1 0.998534 0.239436 0.155176
485 1 0.103407 0.20224 0.104874
486 1 0.152979 0.246428 0.103457
487 1 0.148991 0.197169 0.157831
488 1 0.098625 0.244162 0.155635
489 1 0.197666 0.193855 0.104795
490 1 0.241705 0.25733 0.110048
491 1 0.247366 0.202438 0.153948
492 1 0.193901 0.25097 0.157813
493 1 0.29962 0.193946 0.104486
494 1 0.346819 0.253866 0.102675
495 1 0.345297 0.192044 0.154566
496 1 0.294141 0.257917 0.151068
497 1 0.399126 0.19934 0.0987043
498 1 0.450572 0.2498 0.105157
499 1 0.448573 0.204462 0.155121
500 1 0.401699 0.245558 0.151987
501 1 0.496233 0.201297 0.104276
502 1 0.545453 0.253534 0.108772
503 1 0.548296 0.201676 0.156321
504 1 0.498739 0.252477 0.154087
505 1 0.593754 0.19846 0.106325
506 1 0.650721 0.250472 0.103175
507 1 0.64742 0.195365 0.148551
508 1 0.599312 0.246987 0.157432
509 1 0.697852 0.194851 0.107268
510 1 0.746801 0.249577 0.102143
511 1 0.749435 0.202437 0.149345
512 1 0.693765 0.249209 0.154867
513 1 0.797739 0.198339 0.103294
514 1 0.848771 0.253201 0.106691
515 1 0.84551 0.200337 0.154289
516 1 0.801858 0.255575 0.155148
517 1 0.89549 0.199432 0.105088
518 1 0.94824 0.252244 0.105743
519 1 0.946116 0.19829 0.151859
520 1 0.896518 0.250475 0.150754
521 1 0.997858 0.298836 0.105954
522 1 0.0490271 0.352127 0.100526
523 1 0.0404281 0.295507 0.157971
524 1 0.999337 0.349109 0.149455
525 1 0.091436 0.294595 0.106372
526 1 0.14426 0.352832 0.0962799
527 1 0.148736 0.29939 0.152197
528 1 0.0981288 0.346409 0.162772
529 1 0.192418 0.299815 0.103271
530 1 0.246919 0.356426 0.09903
531 1 0.244178 0.308821 0.149506
532 1 0.196133 0.35422 0.148748
533 1 0.300622 0.30235 0.104586
534 1 0.3478 0.35046 0.0984317
535 1 0.34674 0.30521 0.157005
536 1 0.300215 0.356676 0.158954
537 1 0.401678 0.300559 0.100125
538 1 0.450491 0.345854 0.101558
539 1 0.450048 0.295828 0.150846
540 1 0.398774 0.353769 0.144797
541 1 0.497591 0.298457 0.0977262
542 1 0.549954 0.342983 0.10385
543 1 0.5396 0.302851 0.154426
544 1 0.491393 0.345232 0.152412
545 1 0.604634 0.300383 0.0993
546 1 0.645777 0.351853 0.0975975
547 1 0.643637 0.299927 0.155093
548 1 0.601178 0.352498 0.147419
549 1 0.693757 0.298624 0.107831
550 1 0.744069 0.352064 0.0999565
551 1 0.747633 0.3017 0.152824
552 1 0.69316 0.346694 0.15093
553 1 0.797724 0.301632 0.0968023
554 1 0.847685 0.341485 0.100661
555 1 0.854501 0.301872 0.156624
556 1 0.79668 0.349335 0.15735
557 1 0.900262 0.294765 0.105117
558 1 0.945871 0.349869 0.10379
559 1 0.945495 0.298649 0.157616
560 1 0.899541 0.346329 0.149846
561 1 0.999737 0.398056 0.100524
562 1 0.0457925 0.454347 0.100234
563 1 0.0580292 0.400085 0.151061
564 1 0.9983 0.447261 0.152437
565 1 0.0934585 0.403799 0.0955059
566 1 0.151734 0.450557 0.096331
567 1 0.137823 0.399223 0.143539
568 1 0.096893 0.457784 0.149182
569 1 0.195849 0.397774 0.0993298
570 1 0.24443 0.451429 0.0994559
571 1 0.249247 0.406679 0.150894
572 1 0.196484 0.450481 0.152425
573 1 0.292559 0.406048 0.0980111
574 1 0.344104 0.45026 0.103999
575 1 0.357598 0.402976 0.152355
576 1 0.299159 0.44862 0.154885
577 1 0.39925 0.400959 0.097822
578 1 0.450552 0.443168 0.099326
579 1 0.451899 0.400731 0.145397
580 1 0.403228 0.450221 0.150087
581 1 0.50253 0.396448 0.0948591
582 1 0.5458 0.44711 0.0927307
583 1 0.543465 0.393247 0.150342
584 1 0.501499 0.451966 0.145274
585 1 0.599283 0.408143 0.100182
586 1 0.645517 0.455542 0.10041
587 1 0.646458 0.397325 0.14853
588 1 0.594893 0.450616 0.148528
589 1 0.696389 0.400657 0.0977198
590 1 0.740799 0.447088 0.10039
591 1 0.741806 0.40853 0.149356
592 1 0.691141 0.450474 0.153484
593 1 0.788304 0.403112 0.104909
594 1 0.847525 0.45223 0.103131
595 1 0.844498 0.399746 0.148249
596 1 0.797271 0.452242 0.153118
597 1 0.90374 0.399556 0.100571
598 1 0.955447 0.447107 0.0970258
599 1 0.951657 0.393923 0.151742
600 1 0.901847 0.452123 0.152804
601 1 0.00233478 0.499293 0.102139
602 1 0.0508581 0.552118 0.0912339
603 1 0.0444287 0.501146 0.157093
604 1 0.997129 0.547424 0.144049
605 1 0.0970405 0.497078 0.0943816
606 1 0.142782 0.550915 0.0954686
607 1 0.14996 0.498821 0.147071
608 1 0.0917566 0.550527 0.148621
609 1 0.197658 0.502862 0.097376
610 1 0.244213 0.548736 0.101318
611 1 0.246424 0.502258 0.146167
612 1 0.189784 0.552287 0.148022
613 1 0.298594 0.499008 0.10526
614 1 0.351989 0.545937 0.103355
615 1 0.350817 0.498225 0.157108
616 1 0.301663 0.545488 0.152356
617 1 0.397037 0.495481 0.0971401
618 1 0.451897 0.545114 0.103643
619 1 0.452664 0.497888 0.149108
620 1 0.402749 0.541368 0.156712
621 1 0.494895 0.493142 0.0939708
622 1 0.548316 0.552375 0.104012
623 1 0.550046 0.500032 0.157364
624 1 0.50622 0.547176 0.153097
625 1 0.593468 0.503321 0.103632
626 1 0.639853 0.546504 0.100292
627 1 0.644385 0.501212 0.159173
628 1 0.596564 0.551613 0.157766
629 1 0.704729 0.496965 0.106968
630 1 0.750588 0.55256 0.101812
631 1 0.75487 0.49958 0.151526
632 1 0.700335 0.549558 0.156438
633 1 0.800396 0.501707 0.099076
634 1 0.844044 0.553752 0.0961669
635 1 0.856585 0.502834 0.147026
636 1 0.797842 0.550161 0.149089
637 1 0.907276 0.501155 0.101632
638 1 0.947133 0.553063 0.0948106
639 1 0.943146 0.502912 0.155912
640 1 0.903887 0.555758 0.155595
641 1 0.000894511 0.594784 0.0986532
642 1 0.052568 0.648096 0.0982272
643 1 0.0531364 0.604353 0.152331
644 1 0.00218267 0.648851 0.146177
645 1 0.100517 0.59801 0.103579
646 1 0.148219 0.644628 0.0984524
647 1 0.150838 0.601778 0.159315
648 1 0.101975 0.647414 0.153493
649 1 0.200918 0.603599 0.0994104
650 1 0.251352 0.648437 0.0998516
651 1 0.244882 0.59208 0.156565
652 1 0.200907 0.651049 0.144814
653 1 0.29096 0.59494 0.104039
654 1 0.348496 0.64347 0.101609
655 1 0.350529 0.594265 0.150796
656 1 0.294389 0.642167 0.156618
657 1 0.399939 0.59266 0.103681
658 1 0.453162 0.651663 0.100832
659 1 0.452249 0.593111 0.149474
660 1 0.398318 0.640945 0.153775
661 1 0.496927 0.599975 0.0988529
662 1 0.546198 0.644693 0.105417
663 1 0.545775 0.595718 0.150746
664 1 0.496799 0.646266 0.153045
665 1 0.59179 0.602123 0.100527
666 1 0.644038 0.642282 0.104577
667 1 0.642383 0.595726 0.150465
668 1 0.591417 0.641574 0.157331
669 1 0.6943 0.588821 0.101526
670 1 0.752842 0.651845 0.0975126
671 1 0.750381 0.596529 0.15173
672 1 0.696524 0.642996 0.14917
673 1 0.795632 0.595919 0.10025
674 1 0.839856 0.64292 0.103957
675 1 0.846459 0.598687 0.148188
676 1 0.796814 0.647314 0.151824
677 1 0.896677 0.601765 0.0971409
678 1 0.946629 0.650866 0.0967283
679 1 0.950704 0.601577 0.149243
680 1 0.892061 0.648338 0.152078
681 1 0.99546 0.699687 0.101804
682 1 0.0488292 0.748612 0.102925
683 1 0.0525295 0.698738 0.147358
684 1 0.999807 0.747881 0.150922
685 1 0.0982454 0.70363 0.100727
686 1 0.153039 0.750486 0.090696
687 1 0.152204 0.700454 0.152558
688 1 0.102545 0.749928 0.15495
689 1 0.201021 0.696542 0.0965342
690 1 0.247967 0.746456 0.102358
691 1 0.248842 0.696315 0.149589
692 1 0.197002 0.754507 0.140043
693 1 0.296959 0.699283 0.103141
694 1 0.344793 0.74716 0.100637
695 1 0.348255 0.69486 0.147058
696 1 0.293949 0.747377 0.154144
697 1 0.398432 0.691126 0.106066
698 1 0.449729 0.741602 0.100627
699 1 0.452613 0.697752 0.148044
700 1 0.404294 0.745172 0.152388
701 1 0.502268 0.696787 0.0968793
702 1 0.544634 0.75097 0.0962692
703 1 0.544583 0.695489 0.148462
704 1 0.498763 0.744662 0.149495
705 1 0.590206 0.699999 0.102319
706 1 0.64564 0.748798 0.100437
707 1 0.650295 0.69456 0.143832
708 1 0.599052 0.748641 0.153797
709 1 0.702837 0.696064 0.097587
710 1 0.751559 0.754401 0.097875
711 1 0.750608 0.69477 0.152305
712 1 0.700639 0.741474 0.143749
713 1 0.798025 0.700273 0.0968058
714 1 0.845639 0.754209 0.103656
715 1 0.846163 0.69742 0.147306
716 1 0.795684 0.744775 0.158167
717 1 0.892157 0.694527 0.101555
718 1 0.953764 0.747105 0.0997275
719 1 0.948719 0.695121 0.146862
720 1 0.898049 0.749485 0.145712
721 1 0.000730175 0.801182 0.0966185
722 1 0.0493706 0.843371 0.0988366
723 1 0.0467268 0.797887 0.150577
724 1 0.996699 0.846292 0.148162
725 1 0.103504 0.793337 0.0974774
726 1 0.145662 0.857773 0.107463
727 1 0.154754 0.802347 0.149947
728 1 0.0954946 0.844912 0.153162
729 1 0.193831 0.804565 0.0978412
730 1 0.242222 0.855339 0.0981294
731 1 0.247351 0.79947 0.144271
732 1 0.199806 0.851721 0.152945
733 1 0.298809 0.795633 0.100423
734 1 0.345441 0.846825 0.10209
735 1 0.352339 0.796962 0.156074
736 1 0.297852 0.846355 0.150178
737 1 0.392639 0.794823 0.103093
738 1 0.447898 0.846855 0.108201
739 1 0.44793 0.794144 0.154091
740 1 0.396918 0.847572 0.146997
741 1 0.495903 0.793978 0.10765
742 1 0.540926 0.847498 0.103824
743 1 0.545558 0.798724 0.14784
744 1 0.491525 0.843885 0.157917
745 1 0.594912 0.793966 0.103739
746 1 0.649165 0.850198 0.104643
747 1 0.648829 0.80243 0.151798
748 1 0.59281 0.842745 0.154268
749 1 0.704342 0.79733 0.111679
750 1 0.748357 0.851044 0.0982395
751 1 0.748716 0.794942 0.156731
752 1 0.701732 0.8537 0.146339
753 1 0.796255 0.799055 0.104677
754 1 0.84537 0.844675 0.101724
755 1 0.840921 0.794642 0.155846
756 1 0.798134 0.84704 0.152623
757 1 0.894883 0.795308 0.0992316
758 1 0.944318 0.842499 0.100964
759 1 0.947235 0.79408 0.148202
760 1 0.896964 0.849591 0.146416
761 1 0.995242 0.899337 0.100236
762 1 0.0452651 0.958104 0.101038
763 1 0.0434574 0.899106 0.150238
764 1 0.999179 0.948527 0.153875
765 1 0.0988079 0.90492 0.108328
766 1 0.139192 0.953323 0.10308
767 1 0.146508 0.903136 0.155466
768 1 0.0926516 0.958472 0.145517
769 1 0.200935 0.901691 0.104832
770 1 0.247983 0.95232 0.101016
771 1 0.24685 0.899256 0.152412
772 1 0.19538 0.949157 0.15121
773 1 0.291428 0.901257 0.100524
774 1 0.347193 0.944972 0.102202
775 1 0.346836 0.892541 0.153983
776 1 0.302358 0.942666 0.150364
777 1 0.398302 0.900484 0.101521
778 1 0.456262 0.952764 0.0998935
779 1 0.443438 0.896093 0.150058
780 1 0.402416 0.950799 0.153687
781 1 0.497107 0.905985 0.0972592
782 1 0.545836 0.94505 0.100637
783 1 0.545813 0.894921 0.155027
784 1 0.497673 0.944633 0.15468
785 1 0.592491 0.895461 0.103762
786 1 0.651486 0.946748 0.0976375
787 1 0.652441 0.901813 0.148706
788 1 0.598938 0.943633 0.152014
789 1 0.70136 0.897207 0.0976205
790 1 0.750356 0.953754 0.0989359
791 1 0.748842 0.898791 0.144123
792 1 0.700231 0.945944 0.143711
793 1 0.800706 0.901511 0.0994886
794 1 0.851519 0.948227 0.0997261
795 1 0.848611 0.897203 0.149571
796 1 0.798959 0.9499 0.149185
797 1 0.893579 0.896137 0.0994488
798 1 0.947188 0.945338 0.104337
799 1 0.950732 0.893177 0.147994
800 1 0.895718 0.95299 0.154415
801 1 0.996644 0.998975 0.205486
802 1 0.0430213 0.0435595 0.202405
803 1 0.0458135 0.996815 0.249924
804 1 0.996669 0.0446954 0.249346
805 1 0.0929108 0.000687414 0.198775
806 1 0.141635 0.0483928 0.197346
807 1 0.153987 0.996931 0.247547
808 1 0.100404 0.0447892 0.251421
809 1 0.199685 0.999162 0.19515
810 1 0.248249 0.0500652 0.20022
811 1 0.247655 0.996244 0.252757
812 1 0.199456 0.0499281 0.247261
813 1 0.296822 0.997166 0.202489
814 1 0.349706 0.0559924 0.212558
815 1 0.343811 0.998121 0.257059
816 1 0.296553 0.0475903 0.255883
817 1 0.394594 0.994035 0.206486
818 1 0.453271 0.0394791 0.201564
819 1 0.447482 0.995366 0.251948
820 1 0.404727 0.0487204 0.248675
821 1 0.497654 0.989431 0.203343
822 1 0.550866 0.0460144 0.207642
823 1 0.549514 0.999209 0.251027
824 1 0.497795 0.050216 0.253255
825 1 0.60135 0.995109 0.200125
826 1 0.647407 0.0467749 0.205114
827 1 0.645834 0.995712 0.251292
828 1 0.603289 0.0459121 0.255138
829 1 0.699319 0.00447193 0.197033
830 1 0.749949 0.0537242 0.204352
831 1 0.752298 -0.000790688 0.238915
832 1 0.697189 0.046099 0.24522
833 1 0.801217 0.0036571 0.200763
834 1 0.848645 0.0569704 0.206081
835 1 0.851046 0.00299421 0.245438
836 1 0.801015 0.0575783 0.251746
837 1 0.900904 0.00148105 0.197957
838 1 0.946187 0.0545952 0.203645
839 1 0.946326 -0.000692542 0.251769
840 1 0.902236 0.0535834 0.252215
841 1 0.998161 0.100669 0.202065
842 1 0.0448095 0.147219 0.208331
843 1 0.0466687 0.099558 0.256171
844 1 0.000943686 0.14645 0.251159
845 1 0.0992432 0.100243 0.204598
846 1 0.150735 0.150868 0.205406
847 1 0.147854 0.0962069 0.250598
848 1 0.0940307 0.145935 0.252794
849 1 0.196488 0.101394 0.200369
850 1 0.250342 0.144847 0.201421
851 1 0.250261 0.0993937 0.25221
852 1 0.19533 0.142669 0.250117
853 1 0.298767 0.0958181 0.207224
854 1 0.354351 0.140291 0.20377
855 1 0.337583 0.10244 0.260137
856 1 0.30105 0.150784 0.246396
857 1 0.408198 0.0994072 0.204023
858 1 0.448171 0.152742 0.205005
859 1 0.452575 0.0954684 0.25699
860 1 0.392846 0.144551 0.256961
861 1 0.492897 0.100836 0.205895
862 1 0.546025 0.151962 0.207826
863 1 0.551223 0.0950151 0.252981
864 1 0.496214 0.147151 0.264023
865 1 0.595709 0.0957841 0.200662
866 1 0.646481 0.148621 0.197259
867 1 0.65024 0.0951143 0.256135
868 1 0.600929 0.147129 0.254824
869 1 0.695096 0.101218 0.196216
870 1 0.746788 0.151276 0.201171
871 1 0.747359 0.101236 0.24585
872 1 0.689804 0.14737 0.249807
873 1 0.799616 0.102828 0.204794
874 1 0.855041 0.14798 0.200488
875 1 0.852152 0.101853 0.253922
876 1 0.800417 0.150137 0.253281
877 1 0.897427 0.0987896 0.198241
878 1 0.946431 0.145819 0.199096
879 1 0.950033 0.102396 0.249315
880 1 0.900531 0.149898 0.249856
881 1 0.995305 0.193771 0.200988
882 1 0.0458499 0.242411 0.204136
883 1 0.0480391 0.201149 0.256746
884 1 0.994422 0.24327 0.25329
885 1 0.0937205 0.195056 0.210963
886 1 0.142455 0.24782 0.206879
887 1 0.145214 0.198524 0.255667
888 1 0.0978 0.249963 0.254375
889 1 0.204367 0.193559 0.204679
890 1 0.248672 0.257868 0.19753