ITEM: TIMESTEP
11800
ITEM: NUMBER OF ATOMS
4000
ITEM: BOX BOUNDS pp pp pp
0.0000000000000000e+00 1.6795961913825074e+01
0.0000000000000000e+00 1.6795961913825074e+01
0.0000000000000000e+00 1.6795961913825074e+01
ITEM: ATOMS id type xs ys zs
1 1 1.00103 0.00303268 1.00235
2 1 0.0487719 0.0501903 0.995539
3 1 0.0463063 -0.000464387 0.0519291
4 1 0.997047 0.0482455 0.0525212
5 1 0.093979 0.00394409 0.000741077
6 1 0.146086 0.0547154 0.00366121
7 1 0.15087 0.997638 0.0477055
8 1 0.102511 0.0519458 0.050266
9 1 0.201685 0.0029715 1.00004
10 1 0.254467 0.0509332 0.00272796
11 1 0.250225 0.995759 0.053426
12 1 0.19411 0.049839 0.0494407
13 1 0.302856 0.996532 0.00268093
14 1 0.350636 0.0430353 0.00231291
15 1 0.353081 0.993067 0.0492226
16 1 0.303708 0.0422283 0.0502148
17 1 0.400859 0.993305 0.998443
18 1 0.446854 0.0517243 0.999713
19 1 0.448623 0.999388 0.0504486
20 1 0.397199 0.0434102 0.0474332
21 1 0.506984 -0.000791313 1.00142
22 1 0.548309 0.0478964 0.00446359
23 1 0.547651 0.00166062 0.0576134
24 1 0.492113 0.0491423 0.0530041
25 1 0.598594 -0.000126269 0.000817784
26 1 0.647818 0.0445607 0.00910184
27 1 0.647465 0.999947 0.05773
28 1 0.597257 0.0481139 0.0506814
29 1 0.696622 0.000999757 0.00663535
30 1 0.752384 0.0529647 0.00715413
31 1 0.743879 0.000792436 0.0565439
32 1 0.698371 0.0558265 0.0532804
33 1 0.800848 0.00487983 0.00384293
34 1 0.852527 0.0493504 0.0031343
35 1 0.849477 0.000303979 0.0573277
36 1 0.7938 0.047735 0.054981
37 1 0.895803 0.997919 0.0042824
38 1 0.945646 0.0515692 0.999237
39 1 0.944178 0.99938 0.0523745
40 1 0.900215 0.050632 0.0522301
41 1 0.995927 0.0955047 0.0011969
42 1 0.0517986 0.149768 -0.00230704
43 1 0.0531918 0.0980632 0.0511694
44 1 0.00297231 0.145251 0.0468271
45 1 0.0995847 0.102478 0.00435967
46 1 0.148663 0.146295 0.00128702
47 1 0.148034 0.101383 0.0486814
48 1 0.102978 0.148752 0.0506712
49 1 0.199813 0.0937467 0.00306241
50 1 0.253809 0.145991 0.00337028
51 1 0.254359 0.0960187 0.0525594
52 1 0.205178 0.14861 0.0503375
53 1 0.303077 0.102945 -0.000407845
54 1 0.352985 0.148864 0.00293663
55 1 0.349365 0.0979872 0.0459363
56 1 0.298732 0.141374 0.0549754
57 1 0.403169 0.0990573 -0.00108628
58 1 0.446025 0.149021 0.00274893
59 1 0.443737 0.103363 0.0541279
60 1 0.395624 0.153736 0.055072
61 1 0.494646 0.0992921 0.00341772
62 1 0.542054 0.146863 0.00907749
63 1 0.541979 0.0993472 0.0569905
64 1 0.492984 0.148049 0.0558532
65 1 0.591996 0.101741 0.00581253
66 1 0.641736 0.14675 0.00598427
67 1 0.645774 0.100394 0.0593273
68 1 0.597235 0.14702 0.0568538
69 1 0.700476 0.100584 0.00404488
70 1 0.747313 0.150566 0.000556446
71 1 0.754211 0.098639 0.0526088
72 1 0.706036 0.150836 0.0562983
73 1 0.799594 0.0992221 0.997981
74 1 0.853764 0.149831 1.00065
75 1 0.844989 0.0960165 0.0478774
76 1 0.796609 0.148814 0.048409
77 1 0.899143 0.0979166 0.00240096
78 1 0.94885 0.147382 0.000308147
79 1 0.950919 0.0991169 0.0489992
80 1 0.899401 0.149494 0.0480608
81 1 0.000165315 0.202108 -0.00122147
82 1 0.0448217 0.248104 0.000935242
83 1 0.0484524 0.200766 0.050784
84 1 0.996682 0.242259 0.0481574
85 1 0.101042 0.198922 0.00165419
86 1 0.145324 0.247626 0.00671702
87 1 0.151238 0.195566 0.0476403
88 1 0.103129 0.245494 0.0551886
89 1 0.200873 0.198616 1.00024
90 1 0.259582 0.23994 0.0042196
91 1 0.25435 0.192484 0.051575
92 1 0.203009 0.246582 0.0482735
93 1 0.303151 0.193808 0.993789
94 1 0.353046 0.246139 0.00223276
95 1 0.346172 0.196105 0.0534839
96 1 0.305667 0.243462 0.0528351
97 1 0.398875 0.197374 0.00287726
98 1 0.444682 0.242042 0.00397517
99 1 0.451857 0.197673 0.0563545
100 1 0.398775 0.244767 0.0525115
101 1 0.498213 0.199478 0.00583419
102 1 0.54624 0.245646 0.99906
103 1 0.547093 0.196066 0.0560564
104 1 0.492188 0.253726 0.05252
105 1 0.594249 0.193691 0.00823891
106 1 0.650815 0.247575 0.00241868
107 1 0.652424 0.199328 0.0557924
108 1 0.597991 0.24397 0.0491441
109 1 0.693158 0.192911 0.99923
110 1 0.749475 0.248965 0.00167946
111 1 0.751928 0.205329 0.0505186
112 1 0.702317 0.247808 0.0515027
113 1 0.798154 0.200054 -0.000443044
114 1 0.848114 0.250597 0.00338962
115 1 0.846828 0.197452 0.0553365
116 1 0.804058 0.253418 0.057711
117 1 0.900843 0.198275 -1.99287e-05
118 1 0.941899 0.255808 0.995972
119 1 0.947313 0.199529 0.0487242
120 1 0.897649 0.244312 0.0535923
121 1 -0.000509227 0.307498 0.998754
122 1 0.0493844 0.348823 -0.000376866
123 1 0.0501322 0.291939 0.0519424
124 1 0.997824 0.347597 0.0541926
125 1 0.0968572 0.29861 -6.24845e-05
126 1 0.143802 0.345477 0.0116049
127 1 0.14923 0.296667 0.0545458
128 1 0.0939266 0.348145 0.0554003
129 1 0.203037 0.307191 -0.000133216
130 1 0.255504 0.345555 0.00435099
131 1 0.249296 0.299893 0.0539979
132 1 0.206073 0.345562 0.0567781
133 1 0.3029 0.289527 0.00585694
134 1 0.351889 0.359061 0.999665
135 1 0.351706 0.293718 0.0536495
136 1 0.302333 0.347904 0.0482991
137 1 0.396237 0.302229 0.00115253
138 1 0.442855 0.352739 0.00605889
139 1 0.443107 0.2968 0.050959
140 1 0.395456 0.350849 0.0587255
141 1 0.490734 0.304411 0.00216883
142 1 0.543984 0.346001 0.995189
143 1 0.552691 0.300832 0.0508988
144 1 0.490303 0.34659 0.0547782
145 1 0.595855 0.301433 0.997954
146 1 0.649903 0.342174 0.00699435
147 1 0.654103 0.297533 0.0540771
148 1 0.599258 0.349343 0.0503568
149 1 0.698953 0.297239 0.00150902
150 1 0.745892 0.341183 0.00539685
151 1 0.746091 0.294471 0.053094
152 1 0.70414 0.342793 0.0519478
153 1 0.801015 0.298076 0.00518358
154 1 0.845497 0.352143 0.997067
155 1 0.850559 0.301895 0.0556087
156 1 0.792713 0.348292 0.0565631
157 1 0.889941 0.309534 1.00148
158 1 0.943273 0.350152 1.0016
159 1 0.943693 0.299559 0.0463058
160 1 0.89653 0.352522 0.0520298
161 1 0.999086 0.395454 0.00538404
162 1 0.0474897 0.449817 0.00128252
163 1 0.0483815 0.395209 0.0504404
164 1 0.999875 0.445484 0.0489561
165 1 0.0956021 0.402982 0.00815459
166 1 0.147341 0.446921 0.00541005
167 1 0.151252 0.398071 0.0608465
168 1 0.0978557 0.445222 0.0563755
169 1 0.194538 0.394218 0.00748497
170 1 0.249429 0.449895 0.00621776
171 1 0.252815 0.394915 0.0515951
172 1 0.194828 0.449562 0.0568781
173 1 0.299217 0.402839 0.00373055
174 1 0.34635 0.448335 1.00036
175 1 0.34859 0.397107 0.0519444
176 1 0.299184 0.44909 0.0581105
177 1 0.401378 0.405108 0.00598591
178 1 0.449809 0.458279 0.0120822
179 1 0.446497 0.405339 0.0542228
180 1 0.393612 0.449117 0.0521331
181 1 0.493456 0.406444 0.00515647
182 1 0.544772 0.448989 0.00264231
183 1 0.548551 0.395188 0.0471417
184 1 0.496597 0.449034 0.0583027
185 1 0.594026 0.394273 0.999387
186 1 0.638128 0.4502 0.00098085
187 1 0.641827 0.399194 0.0517568
188 1 0.593797 0.449879 0.0552491
189 1 0.694819 0.392166 0.0078088
190 1 0.745225 0.441657 0.00280931
191 1 0.744757 0.394767 0.0555563
192 1 0.696506 0.444116 0.0517295
193 1 0.796871 0.395048 0.996953
194 1 0.849333 0.45172 0.994495
195 1 0.848931 0.400891 0.0452898
196 1 0.801314 0.450371 0.0478627
197 1 0.897793 0.400525 0.993278
198 1 0.949072 0.448999 1.00145
199 1 0.94669 0.399863 0.0474532
200 1 0.898613 0.448447 0.0489409
201 1 0.996961 0.500595 0.996876
202 1 0.0480685 0.543492 0.00537909
203 1 0.0485544 0.496954 0.0528534
204 1 0.992924 0.552025 0.0524993
205 1 0.0965533 0.497057 0.00463247
206 1 0.140038 0.550308 0.00416204
207 1 0.14539 0.49315 0.0588099
208 1 0.0948531 0.554336 0.0564916
209 1 0.196036 0.503047 0.00564018
210 1 0.248153 0.549839 -0.00042112
211 1 0.246215 0.495146 0.0509356
212 1 0.196544 0.549635 0.0519885
213 1 0.297605 0.495328 0.00632804
214 1 0.345707 0.54852 0.00548569
215 1 0.343493 0.49991 0.0605721
216 1 0.295521 0.545517 0.0521542
217 1 0.395483 0.501217 0.00360955
218 1 0.449158 0.553714 0.00630905
219 1 0.446351 0.500866 0.0594322
220 1 0.395267 0.5467 0.0533638
221 1 0.503671 0.496967 0.00779233
222 1 0.54703 0.549538 0.997968
223 1 0.549661 0.50284 0.0595474
224 1 0.50141 0.550968 0.0512987
225 1 0.590883 0.500879 0.00309779
226 1 0.644887 0.545894 0.00182417
227 1 0.648925 0.493255 0.0473979
228 1 0.594178 0.551582 0.0497517
229 1 0.701474 0.495379 1.00027
230 1 0.751299 0.54846 0.00252903
231 1 0.751096 0.501363 0.0505697
232 1 0.701122 0.545747 0.0426411
233 1 0.800744 0.497613 1.00204
234 1 0.848487 0.552402 0.999259
235 1 0.849982 0.503265 0.0475744
236 1 0.793062 0.551562 0.0539019
237 1 0.901739 0.496612 0.996498
238 1 0.949681 0.549542 -0.000467171
239 1 0.949687 0.498827 0.0465141
240 1 0.897332 0.55179 0.0501514
241 1 0.999775 0.601806 0.00295739
242 1 0.0517157 0.654456 0.00026309
243 1 0.049635 0.606744 0.0495373
244 1 0.996044 0.655584 0.0496162
245 1 0.10341 0.600034 0.00531227
246 1 0.15356 0.647928 0.00373275
247 1 0.150001 0.600598 0.0529854
248 1 0.102322 0.648764 0.051978
249 1 0.204591 0.599899 0.994823
250 1 0.250988 0.653843 0.00173577
251 1 0.252043 0.603887 0.0481407
252 1 0.201084 0.652975 0.0527377
253 1 0.297283 0.60102 0.00321244
254 1 0.347534 0.64879 0.00591147
255 1 0.349183 0.592085 0.0543438
256 1 0.29744 0.653667 0.051588
257 1 0.395694 0.60442 0.00971075
258 1 0.448408 0.645491 0.00921388
259 1 0.438118 0.59601 0.0604551
260 1 0.406457 0.654737 0.0538185
261 1 0.502354 0.606294 0.00556096
262 1 0.551085 0.654136 -0.000561804
263 1 0.550153 0.601378 0.0552202
264 1 0.495465 0.653191 0.054799
265 1 0.595998 0.601803 -0.000170564
266 1 0.64564 0.645528 0.00335237
267 1 0.651304 0.593591 0.0541753
268 1 0.597724 0.643511 0.0538478
269 1 0.698079 0.602489 0.00525487
270 1 0.744472 0.652394 0.998971
271 1 0.749973 0.600775 0.0486031
272 1 0.700729 0.651083 0.0513416
273 1 0.797764 0.602012 0.00476946
274 1 0.847635 0.651409 0.000947206
275 1 0.850647 0.599793 0.0509501
276 1 0.797814 0.649217 0.0502561
277 1 0.898244 0.603044 0.00403496
278 1 0.945361 0.647029 0.00190607
279 1 0.946274 0.610827 0.0569081
280 1 0.897298 0.650843 0.0527811
281 1 0.997482 0.699941 0.997732
282 1 0.0461558 0.754616 0.997859
283 1 0.0486691 0.700274 0.0471014
284 1 0.996617 0.752277 0.0491672
285 1 0.0941758 0.702208 0.998519
286 1 0.150626 0.750757 0.996505
287 1 0.149119 0.703459 0.0460766
288 1 0.0935311 0.754795 0.0491011
289 1 0.200318 0.700242 0.00160185
290 1 0.25214 0.748949 0.998815
291 1 0.248325 0.702859 0.0546826
292 1 0.199687 0.747099 0.0493148
293 1 0.303458 0.698846 0.99806
294 1 0.352175 0.751318 0.00226635
295 1 0.348899 0.695017 0.0525565
296 1 0.300133 0.750734 0.0523274
297 1 0.399766 0.700307 0.999924
298 1 0.443171 0.755616 0.00347458
299 1 0.45573 0.705349 0.0491857
300 1 0.401164 0.753452 0.0553757
301 1 0.49963 0.695028 0.00206051
302 1 0.558199 0.754111 0.00563452
303 1 0.547798 0.699269 0.0506185
304 1 0.503232 0.752727 0.0479998
305 1 0.596662 0.702373 0.0076654
306 1 0.652868 0.751106 0.00270396
307 1 0.652723 0.70218 0.056675
308 1 0.606877 0.751382 0.0548297
309 1 0.700006 0.697516 0.998777
310 1 0.747076 0.755763 0.996853
311 1 0.748206 0.698472 0.0592618
312 1 0.704776 0.751806 0.0531295
313 1 0.799557 0.698384 0.00214752
314 1 0.846791 0.75285 0.0064147
315 1 0.848825 0.700233 0.049695
316 1 0.795025 0.7482 0.0559188
317 1 0.894646 0.699163 1.00052
318 1 0.9446 0.753888 0.00646025
319 1 0.947454 0.699628 0.0486625
320 1 0.890344 0.749373 0.0528896
321 1 0.990151 0.801201 0.00141318
322 1 0.051092 0.854389 0.00361438
323 1 0.0508956 0.806231 0.0515015
324 1 0.998337 0.849671 0.0452477
325 1 0.095053 0.799685 0.000215796
326 1 0.144177 0.853595 0.997443
327 1 0.143135 0.797871 0.0492674
328 1 0.0982025 0.852489 0.0513
329 1 0.19176 0.80142 -0.000247016
330 1 0.247524 0.857774 1.0004
331 1 0.252467 0.794102 0.0530444
332 1 0.197392 0.849983 0.0556214
333 1 0.297262 0.803594 0.00165611
334 1 0.345336 0.855195 0.00613895
335 1 0.346562 0.809073 0.054354
336 1 0.296794 0.851808 0.0492299
337 1 0.395482 0.802298 0.0037091
338 1 0.447487 0.852348 0.00787028
339 1 0.454042 0.802721 0.0549499
340 1 0.399176 0.848253 0.0486401
341 1 0.505739 0.804506 1.00048
342 1 0.553998 0.850982 0.00549477
343 1 0.551565 0.802834 0.0552054
344 1 0.498434 0.854279 0.0603429
345 1 0.605176 0.796879 0.00314024
346 1 0.646956 0.847535 0.000670835
347 1 0.654457 0.803348 0.0592564
348 1 0.60492 0.849981 0.053845
349 1 0.696164 0.803001 0.997636
350 1 0.747637 0.856331 0.997417
351 1 0.74298 0.806374 0.0482856
352 1 0.694647 0.855529 0.0467967
353 1 0.796081 0.802911 0.00268343
354 1 0.845332 0.852596 0.00457946
355 1 0.840525 0.800029 0.0570264
356 1 0.797537 0.852924 0.0532488
357 1 0.890669 0.803532 0.00553151
358 1 0.945672 0.854202 0.995489
359 1 0.940276 0.79731 0.0541626
360 1 0.897678 0.858043 0.0470278
361 1 0.994368 0.902359 0.997982
362 1 0.0453876 0.948692 -0.00021137
363 1 0.0472077 0.899824 0.0522795
364 1 0.99827 0.948374 0.0441497
365 1 0.0978794 0.904733 0.00432403
366 1 0.14527 0.952135 0.00167929
367 1 0.148014 0.894804 0.053114
368 1 0.100879 0.950792 0.0531428
369 1 0.199056 0.907392 0.00535619
370 1 0.24827 0.948833 0.00245609
371 1 0.248474 0.905178 0.0545977
372 1 0.198034 0.94787 0.0562456
373 1 0.297086 0.90896 0.000189687
374 1 0.353627 0.948089 0.00509367
375 1 0.348764 0.902473 0.052564
376 1 0.298695 0.951918 0.0523348
377 1 0.401996 0.902644 -0.000516704
378 1 0.455148 0.949164 0.000868186
379 1 0.451703 0.89998 0.0490332
380 1 0.404157 0.945429 0.0514381
381 1 0.503559 0.899495 0.0022823
382 1 0.549578 0.94903 0.00877717
383 1 0.556958 0.89756 0.0569716
384 1 0.497245 0.946351 0.0513974
385 1 0.596966 0.898727 0.997625
386 1 0.6456 0.954701 0.00271619
387 1 0.639183 0.906939 0.0545165
388 1 0.596472 0.954735 0.057816
389 1 0.687539 0.910307 0.0028613
390 1 0.753424 0.950877 0.00174844
391 1 0.742952 0.903687 0.0551224
392 1 0.694183 0.949465 0.0534302
393 1 0.795319 0.898144 0.00306635
394 1 0.84388 0.94562 0.997533
395 1 0.84676 0.903592 0.0513219
396 1 0.800811 0.948113 0.0570609
397 1 0.893197 0.900446 0.994024
398 1 0.946214 0.953068 0.998558
399 1 0.952514 0.896029 0.0477612
400 1 0.901314 0.945101 0.0502747
401 1 0.998743 0.9934 0.102457
402 1 0.0486469 0.0499742 0.101102
403 1 0.0460433 0.000498601 0.148419
404 1 0.998292 0.0485711 0.148133
405 1 0.100593 0.00602054 0.0970551
406 1 0.149738 0.0496426 0.0994339
407 1 0.14491 0.0017839 0.153226
408 1 0.100045 0.0496672 0.148263
409 1 0.198131 1.00084 0.0986099
410 1 0.252219 0.0420858 0.101555
411 1 0.25379 9.74204e-05 0.154678
412 1 0.200989 0.05434 0.151083
413 1 0.299478 0.998033 0.100537
414 1 0.347062 0.0431813 0.100152
415 1 0.36092 0.997599 0.153049
416 1 0.302103 0.0462762 0.152493
417 1 0.398149 0.996382 0.0989149
418 1 0.446969 0.0473245 0.0994106
419 1 0.447777 0.994164 0.144242
420 1 0.400165 0.0540745 0.146178
421 1 0.49528 0.997583 0.0987097
422 1 0.537821 0.048155 0.104759
423 1 0.53851 0.00344385 0.152152
424 1 0.491813 0.0486932 0.148191
425 1 0.599325 0.00466125 0.10243
426 1 0.64561 0.0521512 0.107966
427 1 0.646724 0.00231299 0.156831
428 1 0.597015 0.046199 0.155368
429 1 0.701948 0.00241128 0.103042
430 1 0.75183 0.0564909 0.10395
431 1 0.753334 0.00324423 0.149286
432 1 0.697138 0.0549158 0.151702
433 1 0.80011 0.998556 0.0998808
434 1 0.846084 0.0471099 0.0999054
435 1 0.846368 0.00496729 0.153519
436 1 0.794736 0.0569867 0.150692
437 1 0.894461 0.998371 0.102797
438 1 0.948471 0.0485098 0.0969695
439 1 0.94906 1.00147 0.152622
440 1 0.88967 0.0533688 0.149393
441 1 1.00112 0.097795 0.0979866
442 1 0.0477764 0.147427 0.102172
443 1 0.0472196 0.10664 0.1496
444 1 1.0004 0.149693 0.147395
445 1 0.0924384 0.0981974 0.103277
446 1 0.155847 0.146692 0.101455
447 1 0.147216 0.0953467 0.148217
448 1 0.0995753 0.154274 0.152212
449 1 0.203622 0.0973196 0.101316
450 1 0.25568 0.143531 0.104443
451 1 0.253191 0.0959648 0.156284
452 1 0.200522 0.143643 0.155143
453 1 0.302455 0.0947712 0.0989176
454 1 0.349959 0.146203 0.103202
455 1 0.351705 0.100797 0.146977
456 1 0.298107 0.144916 0.153037
457 1 0.392674 0.096842 0.0920639
458 1 0.445831 0.153267 0.101395
459 1 0.448243 0.0992242 0.144674
460 1 0.396047 0.148319 0.148053
461 1 0.49797 0.0977191 0.102361
462 1 0.545485 0.141314 0.106388
463 1 0.537094 0.0975745 0.158365
464 1 0.491713 0.150471 0.154776
465 1 0.597936 0.0950041 0.104556
466 1 0.643988 0.151938 0.103195
467 1 0.643209 0.0995903 0.154115
468 1 0.600134 0.152394 0.15376
469 1 0.695006 0.101567 0.101185
470 1 0.744249 0.147242 0.107797
471 1 0.744691 0.101231 0.1558
472 1 0.691587 0.144314 0.157187
473 1 0.802508 0.104369 0.103457
474 1 0.848163 0.149377 0.104776
475 1 0.847281 0.101892 0.152662
476 1 0.799962 0.147036 0.150677
477 1 0.896977 0.102533 0.0972818
478 1 0.947436 0.148638 0.0946964
479 1 0.949229 0.101886 0.145451
480 1 0.899533 0.14776 0.145132
481 1 0.996626 0.198491 0.0995075
482 1 0.0437432 0.247147 0.100424
483 1 0.0494879 0.19943 0.150919
484 1 1.00162 0.243806 0.15068
485 1 0.0986391 0.196829 0.100129
486 1 0.155765 0.236618 0.0997783
487 1 0.150334 0.192183 0.152074
488 1 0.103207 0.245336 0.148005
489 1 0.206513 0.195405 0.103337
490 1 0.249532 0.245315 0.0977288
491 1 0.251476 0.197057 0.153049
492 1 0.201186 0.242941 0.153713
493 1 0.30347 0.197576 0.104172
494 1 0.349479 0.251135 0.10259
495 1 0.343576 0.197124 0.151364
496 1 0.297727 0.24875 0.148099
497 1 0.39178 0.201021 0.101485
498 1 0.44246 0.247193 0.104357
499 1 0.446452 0.202926 0.150988
500 1 0.396761 0.247448 0.156922
501 1 0.496471 0.202014 0.106677
502 1 0.54795 0.250268 0.103469
503 1 0.549462 0.195119 0.144453
504 1 0.496362 0.253543 0.15301
505 1 0.60357 0.201188 0.0998799
506 1 0.65152 0.245259 0.107174
507 1 0.654164 0.199558 0.156127
508 1 0.594988 0.246807 0.146888
509 1 0.70129 0.201508 0.109123
510 1 0.750224 0.252533 0.107595
511 1 0.753681 0.20003 0.151074
512 1 0.703225 0.249029 0.153222
513 1 0.798183 0.198214 0.101896
514 1 0.857711 0.245729 0.102497
515 1 0.852682 0.197024 0.151119
516 1 0.806222 0.249181 0.147088
517 1 0.897756 0.194994 0.0994878
518 1 0.950934 0.248689 0.0986265
519 1 0.949889 0.19536 0.150636
520 1 0.903233 0.244325 0.150524
521 1 0.994395 0.296379 0.101105
522 1 0.0429381 0.345522 0.10618
523 1 0.0507672 0.297524 0.149634
524 1 0.996791 0.347975 0.153501
525 1 0.10444 0.294912 0.103759
526 1 0.151653 0.342743 0.100252
527 1 0.152217 0.290356 0.152288
528 1 0.0943873 0.350568 0.160227
529 1 0.197108 0.29289 0.0979008
530 1 0.248633 0.346628 0.107249
531 1 0.242244 0.293562 0.148258
532 1 0.193724 0.347513 0.152953
533 1 0.300613 0.299588 0.100743
534 1 0.350354 0.344439 0.105405
535 1 0.345522 0.294819 0.15128
536 1 0.298276 0.342658 0.149973
537 1 0.397032 0.299012 0.110851
538 1 0.447396 0.344076 0.106095
539 1 0.446317 0.298838 0.154764
540 1 0.400367 0.348351 0.153871
541 1 0.493348 0.296843 0.0993431
542 1 0.542255 0.348413 0.112728
543 1 0.548127 0.296922 0.154757
544 1 0.491083 0.352073 0.153418
545 1 0.595751 0.298405 0.102841
546 1 0.648555 0.349723 0.0990764
547 1 0.648319 0.296081 0.152417
548 1 0.594492 0.349227 0.155094
549 1 0.700565 0.294444 0.109664
550 1 0.749506 0.342094 0.110152
551 1 0.749348 0.298049 0.158487
552 1 0.700035 0.34847 0.155087
553 1 0.803626 0.300505 0.100636
554 1 0.845283 0.350704 0.0980687
555 1 0.855389 0.297631 0.146458
556 1 0.797747 0.348844 0.154259
557 1 0.900905 0.295469 0.0995756
558 1 0.945026 0.348035 0.0993846
559 1 0.950028 0.292342 0.147949
560 1 0.896764 0.354241 0.149674
561 1 0.997138 0.397678 0.105016
562 1 0.0412345 0.445871 0.102672
563 1 0.0452511 0.398573 0.154955
564 1 0.996251 0.444314 0.151215
565 1 0.0994087 0.390136 0.103086
566 1 0.144437 0.443908 0.109291
567 1 0.150947 0.394668 0.152944
568 1 0.0915095 0.446189 0.157547
569 1 0.199889 0.399994 0.108419
570 1 0.246193 0.448834 0.110068
571 1 0.249532 0.396682 0.152884
572 1 0.196658 0.448032 0.152302
573 1 0.299538 0.393153 0.0987309
574 1 0.346111 0.449655 0.102448
575 1 0.350472 0.392964 0.153724
576 1 0.298144 0.450642 0.151098
577 1 0.403173 0.398841 0.101712
578 1 0.448573 0.449966 0.105492
579 1 0.440884 0.397863 0.156636
580 1 0.396844 0.450682 0.15295
581 1 0.49462 0.394725 0.104307
582 1 0.543647 0.448237 0.109031
583 1 0.540988 0.398489 0.155834
584 1 0.493648 0.445242 0.152551
585 1 0.595354 0.403489 0.0979405
586 1 0.648498 0.446224 0.103061
587 1 0.647277 0.403536 0.154265
588 1 0.595106 0.444643 0.152031
589 1 0.698602 0.400336 0.103059
590 1 0.748489 0.453839 0.0987753
591 1 0.752117 0.399309 0.147165
592 1 0.701041 0.448368 0.149046
593 1 0.79666 0.398441 0.103736
594 1 0.846246 0.447631 0.0968204
595 1 0.845016 0.399801 0.154374
596 1 0.798656 0.453554 0.154739
597 1 0.900739 0.397552 0.0987237
598 1 0.945915 0.451907 0.0946007
599 1 0.947687 0.396766 0.146707
600 1 0.897302 0.446168 0.146961
601 1 0.998085 0.496257 0.101838
602 1 0.0445644 0.546533 0.101979
603 1 0.0439318 0.499846 0.149633
604 1 0.999082 0.548697 0.155674
605 1 0.0956631 0.499873 0.103845
606 1 0.149038 0.547187 0.103004
607 1 0.148012 0.501964 0.148456
608 1 0.0983346 0.547796 0.150643
609 1 0.196035 0.501046 0.102872
610 1 0.248712 0.553792 0.0959924
611 1 0.245092 0.505927 0.154571
612 1 0.195727 0.554234 0.151889
613 1 0.29606 0.502912 0.105455
614 1 0.341571 0.549895 0.103733
615 1 0.346857 0.502698 0.151616
616 1 0.292111 0.557085 0.156015
617 1 0.391924 0.502597 0.104219
618 1 0.440952 0.551016 0.106465
619 1 0.448452 0.504626 0.150784
620 1 0.395667 0.546488 0.153897
621 1 0.496581 0.502803 0.104033
622 1 0.548388 0.549399 0.107684
623 1 0.54717 0.493982 0.153737
624 1 0.500193 0.550019 0.15455
625 1 0.598787 0.494753 0.103457
626 1 0.647212 0.549729 0.112262
627 1 0.644565 0.491151 0.153269
628 1 0.594821 0.544326 0.155288
629 1 0.696347 0.4935 0.101492
630 1 0.747343 0.552556 0.0994218
631 1 0.754135 0.496217 0.148282
632 1 0.702518 0.544329 0.151839
633 1 0.798619 0.503857 0.102503
634 1 0.851344 0.552112 0.100421
635 1 0.853984 0.503106 0.152076
636 1 0.799369 0.549434 0.147895
637 1 0.894424 0.500545 0.0961519
638 1 0.947733 0.547034 0.0978439
639 1 0.948133 0.495675 0.145876
640 1 0.903038 0.548038 0.151694
641 1 1.00037 0.599845 0.100615
642 1 0.0471305 0.650829 0.101959
643 1 0.0488793 0.599316 0.147694
644 1 0.996308 0.651674 0.148736
645 1 0.0990454 0.599182 0.104662
646 1 0.154271 0.650256 0.103462
647 1 0.15086 0.599637 0.150876
648 1 0.0984249 0.649416 0.149807
649 1 0.208444 0.603064 0.100393
650 1 0.249404 0.650058 0.0988458
651 1 0.244314 0.604881 0.154794
652 1 0.199178 0.649674 0.150784
653 1 0.301194 0.602807 0.0992737
654 1 0.347636 0.647411 0.100524
655 1 0.343029 0.601507 0.153513
656 1 0.293746 0.645558 0.151156
657 1 0.390021 0.593913 0.104885
658 1 0.441103 0.647398 0.10452
659 1 0.44342 0.604403 0.159629
660 1 0.395306 0.648288 0.154275
661 1 0.489569 0.597315 0.108043
662 1 0.545495 0.65257 0.101378
663 1 0.544488 0.604358 0.150151
664 1 0.498371 0.65036 0.157813
665 1 0.600347 0.596965 0.102474
666 1 0.646051 0.649741 0.0948323
667 1 0.646793 0.600043 0.15262
668 1 0.593403 0.650943 0.156328
669 1 0.699531 0.596701 0.0956737
670 1 0.746658 0.645533 0.105273
671 1 0.747868 0.600891 0.149622
672 1 0.696126 0.644103 0.151632
673 1 0.803144 0.602239 0.102352
674 1 0.849912 0.650308 0.103398
675 1 0.851752 0.602082 0.153394
676 1 0.802858 0.651703 0.149201
677 1 0.901039 0.600881 0.0993731
678 1 0.94679 0.656674 0.104608
679 1 0.949707 0.602501 0.153785
680 1 0.898509 0.65824 0.152336
681 1 0.998944 0.701058 0.0986064
682 1 0.0438761 0.746341 0.0971327
683 1 0.0457472 0.696887 0.150738
684 1 0.999036 0.747346 0.150944
685 1 0.0972395 0.701682 0.10146
686 1 0.145911 0.753452 0.0981673
687 1 0.14471 0.700919 0.146296
688 1 0.0979411 0.747715 0.150526
689 1 0.199461 0.702959 0.101329
690 1 0.25059 0.752804 0.0998824
691 1 0.244636 0.703965 0.151488
692 1 0.197228 0.750686 0.150767
693 1 0.300641 0.696008 0.103138
694 1 0.35032 0.747588 0.0986865
695 1 0.348246 0.699108 0.153229
696 1 0.2983 0.751728 0.148855
697 1 0.401544 0.701486 0.100942
698 1 0.449998 0.756883 0.105207
699 1 0.445912 0.69879 0.148845
700 1 0.401594 0.748969 0.153281
701 1 0.500316 0.707512 0.0978992
702 1 0.54659 0.752228 0.105482
703 1 0.549524 0.701273 0.153744
704 1 0.49838 0.749505 0.154212
705 1 0.593243 0.698212 0.101719
706 1 0.656828 0.749591 0.103947
707 1 0.646022 0.696251 0.148305
708 1 0.598373 0.746455 0.150766
709 1 0.698564 0.695071 0.11064
710 1 0.7473 0.744727 0.105825
711 1 0.752698 0.697984 0.162952
712 1 0.701269 0.746177 0.155751
713 1 0.801603 0.694386 0.0991804
714 1 0.842508 0.747167 0.106797
715 1 0.846885 0.701382 0.15062
716 1 0.795295 0.750785 0.150259
717 1 0.89372 0.703001 0.1045
718 1 0.943806 0.743177 0.0963659
719 1 0.942865 0.707033 0.154518
720 1 0.891075 0.756773 0.15022
721 1 0.993793 0.812674 0.0970549
722 1 0.0490303 0.852049 0.102741
723 1 0.0569627 0.802047 0.150754
724 1 0.997665 0.854985 0.154069
725 1 0.09534 0.805171 0.097973
726 1 0.151528 0.852208 0.102178
727 1 0.146143 0.797162 0.146363
728 1 0.100272 0.852875 0.155093
729 1 0.195192 0.795692 0.0999337
730 1 0.252212 0.851742 0.0988336
731 1 0.244723 0.803801 0.155783
732 1 0.194462 0.847757 0.150607
733 1 0.300257 0.805203 0.102088
734 1 0.349521 0.85669 0.105342
735 1 0.353865 0.799746 0.156691
736 1 0.300671 0.856058 0.153789
737 1 0.399238 0.803965 0.104607
738 1 0.444558 0.853858 0.108045
739 1 0.451836 0.803694 0.152945
740 1 0.394706 0.850748 0.151855
741 1 0.498963 0.800353 0.106322
742 1 0.546201 0.848427 0.102689
743 1 0.547158 0.803302 0.155486
744 1 0.500929 0.854014 0.15296
745 1 0.600452 0.803987 0.0989064
746 1 0.646949 0.852418 0.104673
747 1 0.655302 0.794235 0.152345
748 1 0.599824 0.848792 0.147624
749 1 0.702391 0.796659 0.105109
750 1 0.742718 0.852075 0.104239
751 1 0.748523 0.799578 0.159576
752 1 0.695838 0.851108 0.152506
753 1 0.789171 0.801312 0.101812
754 1 0.843401 0.851279 0.103659
755 1 0.843344 0.80305 0.149352
756 1 0.800683 0.855936 0.159688
757 1 0.890761 0.800822 0.101873
758 1 0.944207 0.853289 0.100487
759 1 0.942153 0.803129 0.152289
760 1 0.896634 0.852492 0.154473
761 1 0.00289354 0.90539 0.103488
762 1 0.0546628 0.952896 0.100872
763 1 0.0475261 0.900307 0.153684
764 1 0.998112 0.952024 0.149605
765 1 0.100024 0.897564 0.102825
766 1 0.1467 0.946709 0.105247
767 1 0.150175 0.903237 0.154977
768 1 0.0954435 0.949148 0.151718
769 1 0.202533 0.900176 0.103122
770 1 0.249828 0.951237 0.102555
771 1 0.247091 0.89873 0.150589
772 1 0.199064 0.953448 0.154072
773 1 0.298727 0.904524 0.100992
774 1 0.346317 0.952228 0.0993245
775 1 0.348625 0.907562 0.149085
776 1 0.299475 0.950995 0.150509
777 1 0.398468 0.906866 0.100894
778 1 0.449308 0.948036 0.0993687
779 1 0.446589 0.900012 0.153465
780 1 0.404012 0.9462 0.155478
781 1 0.503773 0.904248 0.107543
782 1 0.548063 0.956142 0.109583
783 1 0.54821 0.90098 0.154897
784 1 0.501261 0.947587 0.150716
785 1 0.599995 0.899035 0.111043
786 1 0.650467 0.956482 0.105172
787 1 0.650173 0.900127 0.157368
788 1 0.593185 0.956367 0.155182
789 1 0.694098 0.902981 0.105572
790 1 0.751077 0.949469 0.102039
791 1 0.749837 0.899926 0.15688
792 1 0.701488 0.94807 0.154313
793 1 0.797811 0.899663 0.105944
794 1 0.847625 0.951257 0.108318
795 1 0.847174 0.899781 0.154343
796 1 0.796464 0.94697 0.150129
797 1 0.893055 0.901587 0.10406
798 1 0.948538 0.951521 0.100071
799 1 0.942544 0.905505 0.156229
800 1 0.895018 0.951938 0.153208
801 1 0.994447 0.00325492 0.20305
802 1 0.0510744 0.05299 0.199731
803 1 0.047101 -0.000126875 0.251774
804 1 -0.00021238 0.0526366 0.251001
805 1 0.0926187 0.998457 0.199528
806 1 0.14439 0.0452403 0.20549
807 1 0.143887 0.996564 0.25535
808 1 0.0991861 0.0563191 0.245144
809 1 0.2006 0.995059 0.20537
810 1 0.250287 0.0457989 0.20565
811 1 0.247782 0.996383 0.251418
812 1 0.19873 0.0520182 0.255138
813 1 0.30249 1.00023 0.203808
814 1 0.351336 0.049233 0.195064
815 1 0.349971 0.00606948 0.250178
816 1 0.293942 0.0422021 0.254962
817 1 0.406206 1 0.203634
818 1 0.444368 0.0484187 0.198506
819 1 0.454301 0.994447 0.253748
820 1 0.400804 0.0464936 0.251814
821 1 0.495501 0.00929229 0.20517
822 1 0.545355 0.0491711 0.200567
823 1 0.545892 1.00087 0.254547
824 1 0.497578 0.0483678 0.255216
825 1 0.596052 0.00145403 0.205236
826 1 0.648068 0.0461115 0.203289
827 1 0.645547 0.998396 0.247522
828 1 0.601737 0.0487266 0.250484
829 1 0.699866 0.99757 0.195635
830 1 0.74683 0.0548393 0.203667
831 1 0.746891 0.00520314 0.251034
832 1 0.692684 0.0464274 0.249438
833 1 0.799257 0.00916806 0.200378
834 1 0.848939 0.05944 0.20433
835 1 0.851705 0.00820945 0.247658
836 1 0.802049 0.0527675 0.249516
837 1 0.896996 0.000629948 0.203835
838 1 0.945825 0.051691 0.197324
839 1 0.9501 0.00268582 0.253011
840 1 0.901237 0.0499177 0.25008
841 1 0.998415 0.098903 0.197407
842 1 0.0507822 0.152541 0.196619
843 1 0.048555 0.101054 0.256005
844 1 0.000529935 0.145512 0.251943
845 1 0.103017 0.103418 0.198129
846 1 0.148716 0.14799 0.206495
847 1 0.151201 0.098104 0.248082
848 1 0.099681 0.145829 0.250123
849 1 0.200215 0.0981533 0.20192
850 1 0.250729 0.143588 0.202564
851 1 0.246867 0.0950156 0.255192
852 1 0.197862 0.14556 0.248904
853 1 0.300555 0.0961744 0.206383
854 1 0.354396 0.150223 0.204931
855 1 0.35237 0.0923785 0.246623
856 1 0.296456 0.143066 0.251984
857 1 0.405647 0.0957593 0.200093
858 1 0.442298 0.15785 0.203266
859 1 0.445528 0.105399 0.253158
860 1 0.398311 0.154092 0.257802
861 1 0.491177 0.0980392 0.200838
862 1 0.540916 0.151019 0.19919
863 1 0.541841 0.0968303 0.245973
864 1 0.50087 0.149342 0.253122
865 1 0.592668 0.103339 0.197802
866 1 0.643983 0.153111 0.204402
867 1 0.648935 0.0975602 0.248635
868 1 0.59235 0.14777 0.248414
869 1 0.697859 0.100421 0.206165
870 1 0.751151 0.154296 0.203829
871 1 0.755601 0.105024 0.252088
872 1 0.697009 0.151754 0.25091
873 1 0.79909 0.100783 0.20127
874 1 0.856618 0.156112 0.207607
875 1 0.850355 0.100214 0.250979
876 1 0.805859 0.150499 0.245999
877 1 0.898472 0.100221 0.206698
878 1 0.947806 0.147066 0.201604
879 1 0.949729 0.0998483 0.249122
880 1 0.90078 0.150906 0.255721
881 1 1.00194 0.198414 0.205051
882 1 0.0475396 0.251023 0.19982
883 1 0.043824 0.197746 0.251911
884 1 0.00400647 0.249007 0.252306
885 1 0.0976577 0.194916 0.206107
886 1 0.148381 0.243791 0.200285
887 1 0.144864 0.200683 0.253296
888 1 0.0993097 0.245362 0.249135