ITEM: TIMESTEP
31500
ITEM: NUMBER OF ATOMS
4000
ITEM: BOX BOUNDS pp pp pp
0.0000000000000000e+00 1.6795961913825074e+01
0.0000000000000000e+00 1.6795961913825074e+01
0.0000000000000000e+00 1.6795961913825074e+01
ITEM: ATOMS id type xs ys zs
1 1 0.983533 0.0727837 0.106081
2 1 0.134971 0.132666 0.901745
3 1 0.0569137 0.958105 0.988115
4 1 0.0140262 0.110029 0.147166
5 1 0.0105677 0.041942 0.0455978
6 1 0.0903957 0.102918 0.0341739
7 1 0.178161 0.0338038 0.0633368
8 1 0.0332523 0.957444 0.046152
9 1 0.338136 0.950756 0.0601872
10 1 0.169773 0.0710008 1.00063
11 1 0.0663642 0.00979413 0.134584
12 1 0.376915 0.160638 0.932809
13 1 0.249334 0.103173 0.0743719
14 1 0.373678 0.201496 0.0257865
15 1 0.402671 0.201029 0.159218
16 1 0.271778 0.05132 0.163261
17 1 0.546306 0.877065 0.863289
18 1 0.445244 0.914634 0.00540023
19 1 0.43975 0.932629 0.0747411
20 1 0.314003 0.139918 0.200072
21 1 0.484007 0.906999 0.108677
22 1 0.459592 0.0512019 0.146527
23 1 0.514878 0.927889 0.986178
24 1 0.591962 0.957144 0.876593
25 1 0.598652 0.853963 0.877208
26 1 0.529073 0.0654824 0.0667694
27 1 0.648808 0.985399 0.129854
28 1 0.670921 0.915525 0.0589818
29 1 0.762125 0.0140199 0.95599
30 1 0.730469 0.0719545 0.820961
31 1 0.806894 0.0909478 0.0704553
32 1 0.703871 0.053659 0.0717907
33 1 0.814773 0.985933 0.982803
34 1 0.657892 0.196741 0.907693
35 1 0.654455 0.98963 0.0626707
36 1 0.779899 0.16474 0.877388
37 1 0.793091 0.131025 0.940992
38 1 0.784987 0.0673439 0.92517
39 1 0.943506 0.0129868 0.00131034
40 1 0.854511 0.924429 0.253767
41 1 0.963693 0.125846 0.920141
42 1 0.067812 0.0806443 0.905982
43 1 0.0162783 0.163179 0.182339
44 1 0.0330454 0.0446837 0.215614
45 1 0.106243 0.056485 0.0671988
46 1 0.258949 0.214139 0.982004
47 1 0.227514 0.115454 0.135405
48 1 0.139761 0.220204 0.0544543
49 1 0.119667 0.942365 0.990712
50 1 0.250571 0.169215 0.0546464
51 1 0.298086 0.127116 0.141767
52 1 0.0655536 0.162931 0.127925
53 1 0.283386 0.149367 0.977278
54 1 0.472563 0.0873537 0.936744
55 1 0.411105 0.14618 0.142307
56 1 0.342477 0.149789 0.985331
57 1 0.41731 0.989077 0.991088
58 1 0.561105 0.107102 0.00551432
59 1 0.351033 0.155261 0.0504164
60 1 0.460702 0.18855 0.0199207
61 1 0.558202 0.180498 0.947004
62 1 0.473565 0.0307088 0.996221
63 1 0.600915 0.928788 0.0273635
64 1 0.47755 0.971369 0.849211
65 1 0.642726 0.904497 0.883202
66 1 0.600936 0.997113 0.932515
67 1 0.461198 0.985628 0.0464585
68 1 0.370276 0.0979389 0.171404
69 1 0.496409 0.121704 0.050939
70 1 0.768573 0.278181 0.942997
71 1 0.727233 0.168651 0.940776
72 1 0.647434 0.12059 0.907205
73 1 0.751714 0.0855603 0.0353378
74 1 0.805432 0.263882 0.894902
75 1 0.832303 0.21171 0.907671
76 1 0.72105 0.224724 0.112177
77 1 0.799183 0.140655 0.129807
78 1 0.763865 0.154876 0.0701625
79 1 0.999088 0.103367 0.961857
80 1 0.801841 0.185218 0.970266
81 1 0.0414875 0.124287 0.00585854
82 1 0.0782122 0.184581 0.92967
83 1 0.946301 0.118224 0.0902186
84 1 0.0139027 0.234897 0.00311957
85 1 0.913425 0.142377 0.948442
86 1 0.337022 0.304309 0.956341
87 1 0.301845 0.253762 0.955472
88 1 0.122845 0.164144 0.954175
89 1 0.196259 0.270633 0.954644
90 1 0.221836 0.161449 0.99015
91 1 0.205789 0.173969 0.179315
92 1 0.333092 0.206656 0.978351
93 1 0.265919 0.186305 0.864526
94 1 0.405562 0.320879 0.916405
95 1 0.467153 0.106222 0.111444
96 1 0.331342 0.287829 0.12738
97 1 0.351721 0.232916 0.909926
98 1 0.506076 0.0793713 0.992117
99 1 0.466621 0.257772 0.154303
100 1 0.436798 0.247293 0.00443984
101 1 0.43941 0.225051 0.103166
102 1 0.480966 0.205393 0.894247
103 1 0.6299 0.218792 0.961888
104 1 0.604542 0.385556 0.0689943
105 1 0.389152 0.0970298 0.97956
106 1 0.551765 0.134274 0.850629
107 1 0.694893 0.0976293 0.13782
108 1 0.502984 0.187424 0.0724915
109 1 0.78112 0.955185 0.184576
110 1 0.811624 0.348943 0.118942
111 1 0.733072 0.244061 0.0469118
112 1 0.730085 0.348481 0.978815
113 1 0.897374 0.224402 0.00516598
114 1 0.664052 0.263739 0.0363008
115 1 0.916193 0.272814 0.0379382
116 1 0.758311 0.299069 0.0538452
117 1 0.889596 0.155061 0.0785096
118 1 0.866081 0.109711 0.981675
119 1 0.913919 0.0603761 0.219071
120 1 0.844181 0.149135 0.0305309
121 1 0.0779221 0.292677 0.897244
122 1 0.280903 0.338508 0.988653
123 1 0.0518751 0.18483 0.992166
124 1 0.109009 0.3399 0.853729
125 1 0.0329268 0.194168 0.845739
126 1 0.216915 0.334091 0.941389
127 1 0.23347 0.332691 0.877157
128 1 0.173872 0.3612 0.876757
129 1 0.407716 0.30552 0.0154785
130 1 0.417335 0.415024 0.956456
131 1 0.24279 0.148098 0.921864
132 1 0.330491 0.398296 0.0145994
133 1 0.389408 0.264648 0.157513
134 1 0.354299 0.500389 0.0269606
135 1 0.300412 0.365022 0.152466
136 1 0.396994 0.380939 0.0248881
137 1 0.379996 0.444293 0.0367616
138 1 0.524559 0.209081 0.0113758
139 1 0.491532 0.30305 0.119528
140 1 0.442982 0.354899 0.0633707
141 1 0.482776 0.299963 0.0246659
142 1 0.576587 0.446856 0.895479
143 1 0.563717 0.33019 0.0602207
144 1 0.572886 0.17586 0.197881
145 1 0.75521 0.22833 0.976054
146 1 0.689217 0.394133 0.976186
147 1 0.592267 0.33569 0.127666
148 1 0.550129 0.268134 0.0371103
149 1 0.703137 0.312969 0.940273
150 1 0.690829 0.367745 0.920733
151 1 0.788903 0.26398 0.0151361
152 1 0.71239 0.318704 0.884036
153 1 0.837983 0.29711 0.96787
154 1 0.890565 0.384751 0.00220237
155 1 0.934586 0.326606 0.00298943
156 1 0.845217 0.330398 0.919847
157 1 0.0176007 0.345538 0.950055
158 1 0.0908528 0.429892 0.0131775
159 1 0.0708793 0.220625 0.0375039
160 1 0.8337 0.345172 0.0615836
161 1 0.994197 0.402669 0.0822458
162 1 0.0796463 0.334865 0.0446504
163 1 0.0101189 0.436302 0.0166144
164 1 0.03085 0.374049 0.164576
165 1 0.247485 0.384979 0.908952
166 1 0.180818 0.442143 0.916945
167 1 0.187109 0.277891 0.0387149
168 1 0.0488886 0.483947 0.0294041
169 1 0.260334 0.449809 0.985149
170 1 0.0613857 0.352343 0.996005
171 1 0.328082 0.270885 0.0251613
172 1 0.10439 0.499415 0.093768
173 1 0.196392 0.363217 0.00805785
174 1 0.304842 0.453412 0.940867
175 1 0.258203 0.395251 0.0223275
176 1 0.216749 0.3874 0.0689535
177 1 0.339937 0.373152 0.941427
178 1 0.547859 0.511853 0.051037
179 1 0.501379 0.337959 0.0663955
180 1 0.317114 0.461279 0.0107962
181 1 0.517273 0.451117 0.0285758
182 1 0.617342 0.385749 0.00608471
183 1 0.557208 0.38372 0.0294874
184 1 0.300785 0.503542 0.0638551
185 1 0.464896 0.428994 0.991524
186 1 0.641584 0.532228 0.95942
187 1 0.658922 0.333414 0.972263
188 1 0.501467 0.403795 0.940061
189 1 0.722553 0.196548 0.879656
190 1 0.752989 0.421906 0.989413
191 1 0.720366 0.392847 0.0374708
192 1 0.693746 0.463522 0.102383
193 1 0.792127 0.41268 0.939372
194 1 0.828651 0.358642 0.970266
195 1 0.81404 0.45919 0.0947431
196 1 0.769657 0.430292 0.0709193
197 1 0.9391 0.480669 0.097099
198 1 0.997047 0.33755 0.121451
199 1 0.864328 0.384502 0.115126
200 1 0.954674 0.403293 0.0295243
201 1 0.99205 0.582843 0.00881519
202 1 0.983282 0.720897 1.00091
203 1 0.035715 0.535658 0.940353
204 1 0.939238 0.688034 0.038135
205 1 0.155695 0.572993 0.818893
206 1 0.00681583 0.639973 0.993893
207 1 0.10199 0.604187 0.00931099
208 1 0.0683681 0.560028 0.989862
209 1 0.141514 0.398971 0.0161733
210 1 0.206683 0.618691 0.0372843
211 1 0.183073 0.421254 0.107825
212 1 0.0797017 0.666231 0.0575963
213 1 0.189887 0.546509 0.982181
214 1 0.325589 0.69772 0.896901
215 1 0.328888 0.464441 0.88628
216 1 0.164339 0.513637 0.0415542
217 1 0.304991 0.537535 0.943204
218 1 0.408732 0.503714 0.157263
219 1 0.377614 0.498977 0.0903709
220 1 0.275915 0.481065 0.131355
221 1 0.592245 0.433605 0.0370001
222 1 0.581524 0.454898 0.138472
223 1 0.644242 0.493377 0.151487
224 1 0.493975 0.53682 0.0719813
225 1 0.536031 0.587281 0.973055
226 1 0.763786 0.467888 0.928955
227 1 0.437218 0.591614 0.0808436
228 1 0.653387 0.564749 0.118167
229 1 0.928386 0.555286 0.01271
230 1 0.877905 0.440604 0.986817
231 1 0.778856 0.556436 0.0455865
232 1 0.70842 0.522146 0.139254
233 1 0.804278 0.519843 0.957571
234 1 0.864899 0.543276 0.0160377
235 1 0.904833 0.511935 0.0490893
236 1 0.902771 0.571937 0.0654471
237 1 0.884424 0.454599 0.112927
238 1 0.975072 0.530771 0.0468095
239 1 0.94914 0.548455 0.108573
240 1 0.977648 0.517674 0.164399
241 1 0.969612 0.795606 0.0975483
242 1 0.0144886 0.59894 0.951295
243 1 0.954124 0.626147 0.0410244
244 1 -0.000130097 0.753057 0.0578222
245 1 0.0638772 0.64118 0.963604
246 1 0.141131 0.564349 0.899915
247 1 0.0466349 0.613074 0.0318716
248 1 0.947368 0.664459 0.973393
249 1 0.238942 0.701825 0.0811409
250 1 0.270078 0.763312 0.935064
251 1 0.284261 0.654391 0.927215
252 1 0.377394 0.718407 0.93369
253 1 0.313381 0.665829 0.0108663
254 1 0.299267 0.525511 0.00245959
255 1 0.357185 0.567254 0.988627
256 1 0.266476 0.62789 0.0327385
257 1 0.300154 0.591991 0.982666
258 1 0.278418 0.593226 0.899607
259 1 0.368414 0.554682 0.0589995
260 1 0.443991 0.693107 0.0724644
261 1 0.482326 0.578811 0.0104641
262 1 0.52421 0.533065 0.140803
263 1 0.574479 0.595479 0.121779
264 1 0.455504 0.647238 0.119826
265 1 0.465787 0.494273 0.00305039
266 1 0.629091 0.66367 0.0109234
267 1 0.582778 0.523486 0.150765
268 1 0.655629 0.677158 0.15476
269 1 0.657936 0.513249 0.0721794
270 1 0.72099 0.661101 0.090398
271 1 0.70271 0.506474 0.198535
272 1 0.809442 0.521649 0.0910376
273 1 0.762373 0.610185 0.0731008
274 1 0.768781 0.762378 0.0278529
275 1 0.776728 0.657789 0.015436
276 1 0.724557 0.609353 0.0126704
277 1 0.895432 0.626721 0.0254021
278 1 0.929172 0.735781 0.971838
279 1 0.88518 0.681335 0.993883
280 1 0.8275 0.669943 0.98103
281 1 0.0352923 0.802186 0.0707704
282 1 0.0583866 0.837806 0.013235
283 1 0.974181 0.744498 0.129333
284 1 0.95438 0.874058 0.992928
285 1 0.020725 0.781699 0.0119199
286 1 0.247097 0.850369 0.0337696
287 1 0.189653 0.662757 0.00477066
288 1 0.0961633 0.782114 0.125121
289 1 0.294497 0.857054 0.990237
290 1 0.327627 0.735452 0.96503
291 1 0.294386 0.722836 0.0891593
292 1 0.325885 0.742722 0.0267395
293 1 0.322477 0.6109 0.0564031
294 1 0.348752 0.676195 0.962894
295 1 0.342261 0.664009 0.0875951
296 1 0.293918 0.699019 0.201081
297 1 0.487055 0.760245 0.982414
298 1 0.444382 0.779428 0.0297605
299 1 0.37647 0.647816 0.910754
300 1 0.345163 0.945852 0.943683
301 1 0.399881 0.6438 0.07714
302 1 0.434497 0.654514 0.016801
303 1 0.662213 0.684687 0.224468
304 1 0.532171 0.747617 0.0242374
305 1 0.494295 0.587552 0.859688
306 1 0.482502 0.702913 0.949081
307 1 0.640189 0.725382 0.0225178
308 1 0.66454 0.732251 0.183108
309 1 0.686308 0.672415 0.0344557
310 1 0.79539 0.887402 0.982283
311 1 0.751977 0.648798 0.160547
312 1 0.573968 0.634905 0.071825
313 1 0.67169 0.651651 0.951389
314 1 0.797582 0.80796 0.875815
315 1 0.800173 0.713361 0.0350251
316 1 0.73902 0.70883 0.00213206
317 1 0.862458 0.734372 0.950648
318 1 0.899914 0.688747 0.935449
319 1 0.849209 0.634879 0.121497
320 1 0.817472 0.688048 0.924937
321 1 0.976563 0.884833 0.930386
322 1 0.849449 0.881817 0.931979
323 1 0.093072 0.812934 0.06814
324 1 0.954542 0.886811 0.0654008
325 1 0.11291 0.821181 0.00348457
326 1 0.154759 0.792639 0.894648
327 1 0.0689539 0.659232 0.124893
328 1 0.175518 0.866695 0.912722
329 1 0.0807296 0.758384 0.995122
330 1 0.255558 0.912251 0.972525
331 1 0.251048 0.68464 0.021037
332 1 0.241127 0.94988 0.146951
333 1 0.281927 0.0506192 0.0475747
334 1 0.239861 0.76737 0.0444592
335 1 0.418185 0.756088 0.0867384
336 1 0.220369 0.892693 0.152001
337 1 0.26919 0.800358 0.00172337
338 1 0.396326 0.820865 0.985822
339 1 0.292813 0.816688 0.921914
340 1 0.32824 0.881881 0.0670338
341 1 0.429609 0.723279 0.00764476
342 1 0.494356 0.903826 0.171021
343 1 0.554472 0.885785 0.033234
344 1 0.370905 0.69419 0.0435363
345 1 0.541927 0.58489 0.0531286
346 1 0.645091 0.895566 0.998128
347 1 0.595335 0.668165 0.153353
348 1 0.637681 0.862926 0.170972
349 1 0.680002 0.721636 0.976407
350 1 0.669793 0.845974 0.0197685
351 1 0.739065 0.724524 0.0787301
352 1 0.792515 0.968952 0.316411
353 1 0.73339 0.936506 0.924466
354 1 0.771873 0.851335 0.0523522
355 1 0.811241 0.798307 0.0618349
356 1 0.731235 0.808252 0.0182993
357 1 0.861363 0.809456 0.0318563
358 1 0.0349999 0.74262 0.956699
359 1 0.887787 0.748802 0.0148353
360 1 0.877321 0.886247 0.107651
361 1 0.181385 0.829119 0.0301983
362 1 0.053371 0.905292 0.867305
363 1 0.16107 0.817693 0.955723
364 1 0.144427 0.976569 0.0382601
365 1 0.00737628 0.942883 0.923247
366 1 0.197298 0.8949 0.0370574
367 1 0.133463 0.893898 0.0405269
368 1 0.126291 0.0557021 0.132618
369 1 0.289458 0.106259 0.0181302
370 1 0.237566 0.184021 0.11658
371 1 0.137579 0.00495438 0.0934152
372 1 0.165378 0.96686 0.1443
373 1 0.37836 0.94406 0.0015434
374 1 0.181515 0.942995 0.98026
375 1 0.309743 0.82155 0.0533738
376 1 0.39142 0.977599 0.0544398
377 1 0.40357 0.830076 0.925641
378 1 0.446304 0.881852 0.956032
379 1 0.523453 0.855023 0.0825275
380 1 0.479126 0.815844 0.0834097
381 1 0.509526 0.862313 0.979577
382 1 0.514991 0.0717015 0.131049
383 1 0.630819 0.101646 0.149528
384 1 0.448302 0.933185 0.227418
385 1 0.628394 0.818409 0.0569911
386 1 0.775544 0.0369813 0.0101081
387 1 0.515064 0.00815617 0.0374268
388 1 0.614254 0.937818 0.956784
389 1 0.667948 0.978924 0.958677
390 1 0.821445 0.929565 0.0250967
391 1 0.695527 0.959655 0.0996378
392 1 0.667896 0.851564 0.0886918
393 1 0.68852 0.904988 0.751123
394 1 0.979678 0.917569 0.876196
395 1 0.669094 0.814073 0.143772
396 1 0.770789 0.996432 0.878443
397 1 0.0748888 0.00392711 0.0648806
398 1 0.983902 0.969752 0.971335
399 1 0.103299 0.999207 0.961176
400 1 0.743911 0.930453 0.0479866
401 1 0.98448 0.107397 0.0250096
402 1 0.111928 0.143201 0.0883862
403 1 0.0480709 0.0521168 0.0916057
404 1 0.740805 0.0991549 0.097103
405 1 0.147407 0.0465279 0.282476
406 1 0.188342 0.0813424 0.113117
407 1 0.207736 0.997132 0.108605
408 1 0.238401 0.106042 0.201318
409 1 0.179121 0.15097 0.121894
410 1 0.177244 0.100843 0.170102
411 1 0.206464 0.946867 0.20028
412 1 0.287321 0.911531 0.1283
413 1 0.348581 0.984935 0.110307
414 1 0.334833 0.0146513 0.0569992
415 1 0.374783 0.0361302 0.0138301
416 1 0.415055 0.15261 0.210499
417 1 0.321642 0.916637 0.00168686
418 1 0.454445 0.115133 0.176034
419 1 0.544663 0.113206 0.223721
420 1 0.339148 0.998189 0.170512
421 1 0.411642 0.0756781 0.122241
422 1 0.616801 0.0263278 0.201
423 1 0.608839 0.834421 0.269311
424 1 0.51041 0.0200865 0.234623
425 1 0.393183 0.981632 0.197462
426 1 0.708632 0.0135259 0.143132
427 1 0.768169 0.946071 0.110995
428 1 0.580454 0.0412588 0.982653
429 1 0.742316 0.172216 0.00568146
430 1 0.666064 0.043697 0.0280567
431 1 0.732953 0.988341 0.0584588
432 1 0.678976 0.0243359 0.22645
433 1 0.825065 0.916264 0.0864811
434 1 0.770575 0.00258217 0.146103
435 1 0.828064 0.0583452 0.983083
436 1 0.78736 0.0670862 0.252663
437 1 0.80044 0.980183 0.0683561
438 1 0.801958 0.11371 0.00153901
439 1 0.839102 0.0289481 0.0462662
440 1 0.913782 0.991775 0.108128
441 1 0.0616739 0.0594914 0.977031
442 1 0.989291 0.172809 0.0377343
443 1 0.00190219 0.139286 0.094819
444 1 0.986674 0.0836885 0.196898
445 1 0.168045 0.00342012 0.982013
446 1 0.0827283 0.210522 0.165822
447 1 0.0197402 0.115586 0.241747
448 1 0.22792 0.0366727 0.00720728
449 1 0.138719 0.158246 0.292752
450 1 0.160385 0.141144 0.213037
451 1 0.320563 0.0560464 0.105659
452 1 0.210703 0.0312515 0.170626
453 1 0.190449 0.231109 0.131864
454 1 0.312166 0.346234 0.0861032
455 1 0.332398 0.0566098 0.169249
456 1 0.165985 0.315807 0.141481
457 1 0.313151 0.183751 0.0978751
458 1 0.44546 0.0878404 0.0062971
459 1 0.569415 0.0516262 0.163977
460 1 0.387303 0.182919 0.092961
461 1 0.541605 0.934625 0.136104
462 1 0.392463 0.0690267 0.275364
463 1 0.341821 0.916381 0.277778
464 1 0.612938 0.168493 0.0722333
465 1 0.533509 0.965178 0.0828014
466 1 0.695629 0.213902 0.000646162
467 1 0.604633 0.0976101 0.205137
468 1 0.703294 0.140502 0.244879
469 1 0.786839 0.340689 0.00796779
470 1 0.555422 0.161511 0.0525679
471 1 0.784775 0.220723 0.0831489
472 1 0.657218 0.0396874 0.963115
473 1 0.834427 0.112112 0.173869
474 1 0.0705962 0.233975 0.961785
475 1 0.943913 0.0863516 0.977752
476 1 0.859665 0.167038 0.976021
477 1 0.826135 0.0271548 0.108461
478 1 0.957226 0.220868 0.0393977
479 1 0.86071 0.114 0.110628
480 1 0.868355 0.0940611 0.0495055
481 1 0.0124867 0.22639 0.0616464
482 1 0.204442 0.228086 0.00140167
483 1 0.0347933 0.102855 0.0626859
484 1 0.982036 0.214337 0.165762
485 1 0.0825713 0.105494 0.123041
486 1 0.230119 0.25935 0.0963696
487 1 0.194004 0.298814 0.274284
488 1 0.995507 0.262576 0.104375
489 1 0.114817 0.088373 0.19448
490 1 0.267957 0.244857 0.176065
491 1 0.306977 0.208777 0.0427649
492 1 0.144503 0.267621 0.0999022
493 1 0.250811 0.259341 0.0349627
494 1 0.332783 0.225038 0.159245
495 1 0.346306 0.319198 0.248031
496 1 0.337495 0.279009 0.200315
497 1 0.456516 0.140388 0.974938
498 1 0.351289 0.160016 0.160987
499 1 0.371111 0.227272 0.203561
500 1 0.40717 0.197853 0.967761
501 1 0.444241 0.227434 0.227956
502 1 0.525641 0.132868 0.106495
503 1 0.701992 0.279815 0.0861795
504 1 0.427182 0.326157 0.135126
505 1 0.524092 0.0210629 0.970999
506 1 0.689481 0.315441 0.158966
507 1 0.718196 0.139444 0.180293
508 1 0.661063 0.042974 0.158788
509 1 0.682297 0.203063 0.0631222
510 1 0.692598 0.100821 0.0170434
511 1 0.65765 0.0821879 0.0946802
512 1 0.657278 0.162528 0.128327
513 1 0.759888 0.253185 0.165268
514 1 0.956666 0.242306 0.983139
515 1 0.832678 0.187388 0.0942225
516 1 0.878548 0.328996 0.0182357
517 1 0.922731 0.136245 0.0161292
518 1 0.935862 0.239066 0.0960142
519 1 0.955247 0.246861 0.330395
520 1 0.84946 0.263062 0.0213245
521 1 0.0603414 0.279376 0.0101233
522 1 0.0549115 0.280656 0.0808441
523 1 0.898571 0.130808 0.183929
524 1 0.978343 0.272675 0.0415252
525 1 0.129194 0.24727 0.932098
526 1 0.227125 0.306012 0.997112
527 1 0.105706 0.272506 0.0472759
528 1 0.146498 0.362449 0.965596
529 1 0.291549 0.285084 0.0744376
530 1 0.271651 0.305689 0.128959
531 1 0.223312 0.279186 0.156718
532 1 0.186067 0.324954 0.0845054
533 1 0.379582 0.307902 0.0760822
534 1 0.257023 0.454538 0.0494212
535 1 0.382907 0.448006 0.122232
536 1 0.280752 0.305195 0.187121
537 1 0.361211 0.402574 0.159306
538 1 0.58049 0.223155 0.995912
539 1 0.556475 0.29161 0.108162
540 1 0.43956 0.350167 0.23701
541 1 0.661947 0.156614 0.0233588
542 1 0.5993 0.151874 0.137893
543 1 0.559169 0.109767 0.157072
544 1 0.402114 0.479349 0.9834
545 1 0.599488 0.155304 0.0068267
546 1 0.533561 0.359256 0.110807
547 1 0.597226 0.237098 0.124889
548 1 0.665451 0.277079 0.205549
549 1 0.73044 0.280899 0.00153996
550 1 0.848885 0.279619 0.194991
551 1 0.700687 0.230639 0.943007
552 1 0.744208 0.358804 0.161389
553 1 0.882709 0.214062 0.0629478
554 1 0.774972 0.425811 0.145494
555 1 0.800228 0.334848 0.194265
556 1 0.754585 0.258479 0.269566
557 1 0.991383 0.307774 0.992605
558 1 0.873575 0.306227 0.0859982
559 1 0.806932 0.290997 0.146563
560 1 0.920359 0.254579 0.211999
561 1 0.957557 0.346858 0.0703104
562 1 0.0104566 0.464787 0.0707975
563 1 0.0529885 0.390905 0.0434691
564 1 0.971198 0.292472 0.157171
565 1 0.113715 0.489847 0.99108
566 1 0.102667 0.52889 0.0405913
567 1 0.0465159 0.364954 0.0943555
568 1 0.167465 0.448547 0.165293
569 1 0.150477 0.326445 0.0343686
570 1 0.112385 0.399398 0.0755753
571 1 0.152587 0.370602 0.120994
572 1 0.111318 0.327498 0.0981125
573 1 0.255669 0.331 0.0451605
574 1 0.118557 0.458099 0.922488
575 1 0.447687 0.458264 0.0497036
576 1 0.357992 0.391247 0.0819486
577 1 0.292073 0.411113 0.0721868
578 1 0.497909 0.267625 0.90774
579 1 0.490385 0.391691 0.0353438
580 1 0.313001 0.434445 0.143237
581 1 0.613818 0.465009 0.0840793
582 1 0.553773 0.435787 0.200383
583 1 0.640399 0.441211 0.982229
584 1 0.522824 0.469973 0.137097
585 1 0.586459 0.48376 0.976455
586 1 0.657534 0.42904 0.138366
587 1 0.646388 0.316922 0.0880534
588 1 0.529353 0.496966 0.200661
589 1 0.694835 0.316695 0.0356336
590 1 0.773274 0.400464 0.201606
591 1 0.660398 0.371844 0.0426604
592 1 0.657055 0.432319 0.0612353
593 1 0.768422 0.363873 0.0682435
594 1 0.865818 0.335579 0.211811
595 1 0.937813 0.2964 0.104829
596 1 0.827759 0.393617 0.16152
597 1 0.924659 0.414513 0.0948177
598 1 0.848456 0.406808 0.0566059
599 1 0.925896 0.196716 0.197099
600 1 0.870717 0.509913 0.0956212
601 1 0.0264153 0.495932 0.184889
602 1 0.994309 0.487647 0.987448
603 1 0.0262325 0.50789 0.110143
604 1 0.0199093 0.641324 0.0858326
605 1 0.0193638 0.335334 0.0437101
606 1 0.152014 0.553864 0.104396
607 1 0.134395 0.454748 0.0616563
608 1 0.0729041 0.447187 0.0822539
609 1 0.0747465 0.486239 0.146308
610 1 0.174212 0.614826 0.104558
611 1 0.140712 0.507297 0.164606
612 1 0.175448 0.669498 0.0718456
613 1 0.11892 0.445563 0.122607
614 1 0.426033 0.541025 0.210353
615 1 0.196601 0.444705 0.0219842
616 1 0.366682 0.657361 0.238659
617 1 0.235606 0.440956 0.145064
618 1 0.332066 0.459683 0.0840896
619 1 0.328097 0.552693 0.122873
620 1 0.241535 0.512914 0.0282183
621 1 0.402115 0.548086 0.114732
622 1 0.601824 0.486709 0.19776
623 1 0.548031 0.42014 0.0903965
624 1 0.505828 0.451365 0.234503
625 1 0.58709 0.563949 0.0052993
626 1 0.671668 0.449736 0.208609
627 1 0.585117 0.393762 0.144271
628 1 0.571516 0.478818 0.256258
629 1 0.651416 0.55557 0.184643
630 1 0.701059 0.595529 0.07773
631 1 0.755107 0.480193 0.116724
632 1 0.717383 0.454286 0.164864
633 1 0.888434 0.54834 0.18538
634 1 0.911277 0.601302 0.154909
635 1 0.865584 0.56628 0.123539
636 1 0.816033 0.525735 0.151277
637 1 0.786816 0.474323 0.0375108
638 1 0.858995 0.680098 0.0529787
639 1 0.0415617 0.424666 0.12967
640 1 0.932089 0.385596 0.21128
641 1 0.0282836 0.559003 0.176441
642 1 0.075412 0.588674 0.0839495
643 1 0.112824 0.615201 0.134239
644 1 0.136854 0.754899 0.302328
645 1 0.0345061 0.545802 0.0466772
646 1 0.278029 0.660205 0.0871874
647 1 0.0761001 0.597703 0.178139
648 1 0.128958 0.630799 0.0613464
649 1 0.157551 0.575944 0.0466241
650 1 0.295218 0.621376 0.134188
651 1 0.213414 0.548515 0.0739466
652 1 0.284739 0.777482 0.101362
653 1 0.238515 0.57145 0.00618939
654 1 0.301547 0.642264 0.202264
655 1 0.268135 0.555992 0.142188
656 1 0.44996 0.597001 0.151926
657 1 0.37812 0.711126 0.112294
658 1 0.455337 0.592827 0.266134
659 1 0.357132 0.604903 0.113924
660 1 0.463482 0.767211 0.136784
661 1 0.55271 0.568461 0.182257
662 1 0.498192 0.585566 0.115322
663 1 0.534326 0.703332 0.245034
664 1 0.41034 0.607478 0.214885
665 1 0.513989 0.622422 0.173835
666 1 0.796104 0.667763 0.258947
667 1 0.55012 0.539616 0.259306
668 1 0.7816 0.698543 0.19814
669 1 0.642296 0.634825 0.100181
670 1 0.722058 0.515344 0.0566745
671 1 0.74672 0.563025 0.108584
672 1 0.742387 0.632857 0.226899
673 1 0.797692 0.593405 0.121182
674 1 0.856446 0.703617 0.107243
675 1 0.908596 0.650188 0.105165
676 1 0.807168 0.633107 0.205213
677 1 0.840729 0.606953 0.0732376
678 1 0.953479 0.632434 0.20386
679 1 0.967048 0.683117 0.0919896
680 1 0.905207 0.654333 0.255447
681 1 0.0823163 0.763044 0.187902
682 1 0.0195945 0.696358 0.146105
683 1 0.0254083 0.590901 0.121459
684 1 0.880595 0.807389 0.262067
685 1 0.0552689 0.724085 0.106438
686 1 0.130076 0.730615 0.0907518
687 1 0.178293 0.782696 0.0658932
688 1 0.185548 0.714759 0.11634
689 1 0.376084 0.63681 0.0176472
690 1 0.35385 0.852686 0.0185829
691 1 0.211922 0.696784 0.17533
692 1 0.151825 0.767255 0.217172
693 1 0.356489 0.620657 0.185128
694 1 0.420251 0.812515 0.116837
695 1 0.41384 0.71688 0.24182
696 1 0.533646 0.77395 0.0884653
697 1 0.537181 0.696482 0.0691939
698 1 0.486189 0.742804 0.0672938
699 1 0.447562 0.477682 0.215731
700 1 0.427214 0.802327 0.245318
701 1 0.486598 0.702707 0.0202186
702 1 0.649086 0.761873 0.0881404
703 1 0.618026 0.598016 0.163091
704 1 0.378456 0.7638 0.00810637
705 1 0.479358 0.634798 0.0616519
706 1 0.697822 0.794382 0.072661
707 1 0.742589 0.651374 0.303916
708 1 0.731862 0.585274 0.275071
709 1 0.718327 0.69662 0.153121
710 1 0.769527 0.745362 0.147621
711 1 0.754517 0.495786 0.278302
712 1 0.753975 0.709496 0.266443
713 1 0.79419 0.730316 0.964392
714 1 0.949358 0.852461 0.183302
715 1 0.882319 0.663659 0.160545
716 1 0.804361 0.655818 0.067169
717 1 0.922572 0.729375 0.0846269
718 1 0.863513 0.753932 0.073002
719 1 0.975105 0.740367 0.238619
720 1 0.907231 0.786053 0.126993
721 1 0.99256 0.934303 0.0912982
722 1 0.145309 0.769394 0.0148583
723 1 0.0885367 0.708705 0.156016
724 1 1.0008 0.634756 0.158606
725 1 0.0734123 0.851004 0.116499
726 1 0.346784 0.0923497 0.034048
727 1 0.00861091 0.686919 0.222076
728 1 0.964863 0.00694054 0.0797014
729 1 0.0559851 0.913083 0.126
730 1 0.219091 0.978343 0.0499259
731 1 0.235907 0.70523 0.238726
732 1 0.327367 0.739914 0.137726
733 1 0.341161 0.875151 0.163755
734 1 0.320985 0.766315 0.193284
735 1 0.381309 0.69464 0.29516
736 1 0.410245 0.885744 0.140116
737 1 0.517602 0.799613 0.139935
738 1 0.603906 0.849611 0.11763
739 1 0.460537 0.844543 0.0265539
740 1 0.232306 0.815233 0.164795
741 1 0.604732 0.958873 0.0867269
742 1 0.575195 0.851659 0.183758
743 1 0.566266 0.814197 0.0518233
744 1 0.4699 0.983586 0.2608
745 1 0.582693 0.736068 0.084152
746 1 0.723481 0.885904 0.0822459
747 1 0.613557 0.797557 0.154188
748 1 0.505876 0.721798 0.122444
749 1 0.773421 0.691139 0.117717
750 1 0.748789 0.817509 0.195249
751 1 0.691905 0.751615 0.132435
752 1 0.693237 0.884411 0.147611
753 1 0.829127 0.774973 0.995994
754 1 0.927563 0.946288 0.847219
755 1 0.781425 0.759816 0.2126
756 1 0.74151 0.768736 0.263913
757 1 0.972076 0.831147 0.0424391
758 1 0.93339 0.931124 0.106313
759 1 0.945783 0.845078 0.246025
760 1 0.796603 0.746195 0.0915031
761 1 0.994958 0.809273 0.166175
762 1 0.00275116 0.0297217 0.153626
763 1 0.153442 0.933523 0.085399
764 1 0.922359 0.973035 0.04638
765 1 0.195377 0.858393 0.0849008
766 1 0.117273 0.0356891 0.00693964
767 1 0.197077 0.993978 0.242147
768 1 0.0249563 0.952052 0.158721
769 1 0.280574 0.855643 0.165057
770 1 0.0746911 0.960104 0.906144
771 1 0.271149 0.96032 0.0821194
772 1 0.107276 0.956418 0.133675
773 1 0.281777 0.996333 0.13231
774 1 0.365344 0.116502 0.106659
775 1 0.378519 0.919139 0.193534
776 1 0.170176 0.985903 0.358671
777 1 0.389953 0.904304 0.0549751
778 1 0.490482 0.90398 0.044472
779 1 0.433537 0.869424 0.0759673
780 1 0.329491 0.798637 0.995498
781 1 0.434791 0.945077 0.147834
782 1 0.548096 0.964109 0.190789
783 1 0.402833 0.942114 0.260785
784 1 0.578527 0.902001 0.0965988
785 1 0.521916 0.684377 0.16936
786 1 0.588672 0.792077 0.105148
787 1 0.619216 0.712842 0.263504
788 1 0.486156 0.966502 0.125405
789 1 0.593344 0.910041 0.158069
790 1 0.670021 0.977418 0.188752
791 1 0.918667 0.790839 0.0515472
792 1 0.523726 0.919192 0.399551
793 1 0.819332 0.786656 0.135363
794 1 0.588179 0.983092 0.145986
795 1 0.889124 0.91866 0.0541354
796 1 0.727792 0.942669 0.152597
797 1 0.907535 0.850521 0.0432966
798 1 0.944186 0.0505087 0.0439333
799 1 0.94034 0.0954389 0.159345
800 1 0.875864 0.98075 0.00556129
801 1 0.969779 0.977148 0.135563
802 1 0.0656956 0.97761 0.19368
803 1 0.0978164 0.0181593 0.222665
804 1 0.985195 0.0219549 0.39852
805 1 0.885171 0.0434423 0.085431
806 1 0.058828 0.125025 0.197083
807 1 0.0644774 0.967613 0.331081
808 1 0.0407822 0.00548748 0.266075
809 1 0.252974 0.879666 0.0994271
810 1 0.262261 0.993947 0.189833
811 1 0.220733 0.946375 0.271449
812 1 0.151408 0.0339642 0.186264
813 1 0.346039 0.948328 0.231497
814 1 0.140468 0.960755 0.210101
815 1 0.438627 0.984214 0.316648
816 1 0.26963 0.00395044 0.270476
817 1 0.392886 0.0294285 0.158002
818 1 0.400117 0.918122 0.324182
819 1 0.509731 0.964892 0.302499
820 1 0.41036 0.0084559 0.258264
821 1 0.530093 0.863694 0.144426
822 1 0.551858 0.173972 0.258635
823 1 0.669542 0.000680107 0.339563
824 1 0.551064 0.0133358 0.299752
825 1 0.613567 0.0435398 0.103718
826 1 0.737661 0.0544322 0.185056
827 1 0.776003 0.952491 0.25084
828 1 0.720389 0.0776929 0.245163
829 1 0.859979 0.974882 0.0733268
830 1 0.865113 0.983344 0.270313
831 1 0.726746 0.831935 0.132436
832 1 0.67813 0.0882077 0.20619
833 1 0.763947 0.875942 0.157888
834 1 0.878759 0.94719 0.131535
835 1 0.892984 0.055252 0.278403
836 1 0.805348 0.0035253 0.268187
837 1 0.0261111 0.983597 0.0998968
838 1 0.94878 0.121777 0.222119
839 1 0.975187 0.940421 0.0256829
840 1 0.878546 0.0974692 0.323963
841 1 0.128671 0.100001 0.259747
842 1 0.945961 0.178026 0.0877771
843 1 0.0191306 0.135686 0.29638
844 1 0.99693 0.195222 0.353207
845 1 0.948856 0.106709 0.282701
846 1 0.148058 0.194732 0.168273
847 1 0.0576015 0.163541 0.338466
848 1 0.12169 0.107997 0.321265
849 1 0.189475 0.0674537 0.228976
850 1 0.300274 0.0847617 0.214251
851 1 0.204746 0.123233 0.2532
852 1 0.275577 0.180535 0.1671
853 1 0.247946 0.0413733 0.230408
854 1 0.392032 0.0701357 0.0649184
855 1 0.453381 0.0548204 0.0719861
856 1 0.477312 0.156312 0.217232
857 1 0.358725 0.108094 0.23538
858 1 0.440712 0.128635 0.269321
859 1 0.573155 0.999145 0.237895
860 1 0.417671 0.0703278 0.207002
861 1 0.552852 0.0160129 0.11036
862 1 0.531754 0.107862 0.348548
863 1 0.456387 0.0167128 0.202915
864 1 0.500426 0.0705552 0.198643
865 1 0.517798 0.0142091 0.165184
866 1 0.583427 0.102845 0.0987546
867 1 0.652832 0.922029 0.175102
868 1 0.6984 0.203906 0.169046
869 1 0.767468 0.0416154 0.0843964
870 1 0.676025 0.924064 0.241844
871 1 0.725769 0.159434 0.123424
872 1 0.783786 0.0185194 0.203952
873 1 0.832712 0.0461413 0.171248
874 1 0.839133 0.2446 0.115971
875 1 0.727555 0.983863 0.20754
876 1 0.772103 0.105455 0.195515
877 1 0.805733 0.205359 0.154413
878 1 0.947648 0.150916 0.147739
879 1 0.979348 0.194076 0.225484
880 1 0.781825 0.0671226 0.138367
881 1 0.212843 0.24181 0.274975
882 1 0.895401 0.204012 0.134536
883 1 0.273101 0.0854874 0.269734
884 1 0.0821724 0.262938 0.201862
885 1 0.101 0.1657 0.216919
886 1 0.878547 0.205592 0.296876
887 1 0.147959 0.237668 0.287777
888 1 0.0494952 0.241942 0.351065
889 1 0.191749 0.182922 0.254542
890 1 0.0626643 0.22784 0.103896
891 1 0.249295 0.21326 0.225953
892 1 0.194108 0.233403 0.210787
893 1 0.355875 0.172835 0.242208
894 1 0.363585 0.341349 0.134542
895 1 0.416086 0.201352 0.380334
896 1 0.253056 0.228525 0.324123