ITEM: TIMESTEP
8800
ITEM: NUMBER OF ATOMS
4000
ITEM: BOX BOUNDS pp pp pp
0.0000000000000000e+00 1.6795961913825074e+01
0.0000000000000000e+00 1.6795961913825074e+01
0.0000000000000000e+00 1.6795961913825074e+01
ITEM: ATOMS id type xs ys zs
1 1 0.999321 0.998859 0.000301206
2 1 0.047893 0.0489092 0.996012
3 1 0.0504335 0.999692 0.049923
4 1 0.999255 0.0500984 0.0503218
5 1 0.101206 0.996671 0.000974013
6 1 0.148832 0.0468318 0.999304
7 1 0.150348 0.99805 0.0484322
8 1 0.10201 0.0473694 0.0506877
9 1 0.202792 0.99911 0.00249389
10 1 0.250695 0.05068 0.00273089
11 1 0.250566 0.99696 0.0497237
12 1 0.197541 0.0505889 0.0474278
13 1 0.299919 0.997243 0.998537
14 1 0.350754 0.0473605 0.996637
15 1 0.35069 1.00004 0.0527412
16 1 0.302716 0.0469825 0.0495594
17 1 0.396754 0.99639 0.995105
18 1 0.450264 0.049128 0.00451381
19 1 0.447773 0.994721 0.0493697
20 1 0.40023 0.0453066 0.0475635
21 1 0.500661 0.999472 0.00320228
22 1 0.548823 0.0491651 -0.000140458
23 1 0.551138 0.997022 0.0493319
24 1 0.504135 0.0470881 0.0519716
25 1 0.601084 0.99823 0.99832
26 1 0.649159 0.0483005 0.996742
27 1 0.649267 0.000793131 0.0463579
28 1 0.600891 0.0476645 0.0500841
29 1 0.700977 0.00242502 0.998743
30 1 0.748851 0.0501615 0.00242173
31 1 0.752866 -0.000223982 0.0501809
32 1 0.701654 0.0500974 0.0510149
33 1 0.801491 0.998329 5.36001e-05
34 1 0.850038 0.0449456 1.0001
35 1 0.847411 0.996639 0.0489305
36 1 0.801469 0.0501456 0.0508674
37 1 0.898425 0.000349609 3.76029e-06
38 1 0.950979 0.0507433 0.00264565
39 1 0.948303 0.0012074 0.0477058
40 1 0.897694 0.0522036 0.0516477
41 1 2.98507e-05 0.104892 -0.000608407
42 1 0.0501708 0.153574 0.00265817
43 1 0.0493273 0.101117 0.0552181
44 1 0.994967 0.151434 0.0512592
45 1 0.0996108 0.101153 0.00242479
46 1 0.148459 0.153559 0.00109493
47 1 0.151305 0.101316 0.0496735
48 1 0.102965 0.153478 0.0524129
49 1 0.201498 0.0984466 0.0013099
50 1 0.253525 0.151792 0.000988269
51 1 0.250059 0.0993179 0.0494908
52 1 0.202282 0.150698 0.0520633
53 1 0.300333 0.100104 0.00317232
54 1 0.357493 0.1483 -0.000518359
55 1 0.351195 0.0984527 0.0477852
56 1 0.298639 0.149521 0.0508586
57 1 0.403618 0.0973702 0.000415076
58 1 0.452292 0.147041 0.999628
59 1 0.44979 0.100757 0.0506359
60 1 0.401592 0.150003 0.0521287
61 1 0.502162 0.100697 0.000409395
62 1 0.548989 0.149084 0.00396951
63 1 0.551333 0.0989228 0.0495739
64 1 0.500596 0.15056 0.0509069
65 1 0.600084 0.101891 0.00291296
66 1 0.648589 0.149255 0.000927451
67 1 0.650941 0.100942 0.0505332
68 1 0.598981 0.15126 0.0521797
69 1 0.699816 0.104044 0.00140303
70 1 0.751048 0.150268 0.00140559
71 1 0.749935 0.102327 0.0523865
72 1 0.700146 0.149271 0.0493441
73 1 0.800439 0.100311 0.998007
74 1 0.849049 0.150611 0.00323914
75 1 0.848257 0.101852 0.053463
76 1 0.797213 0.151862 0.0494618
77 1 0.900136 0.0988934 0.00317657
78 1 0.946015 0.151705 0.00344139
79 1 0.946886 0.099089 0.0523552
80 1 0.896252 0.152184 0.0513286
81 1 0.00299144 0.203939 0.00262966
82 1 0.0499278 0.251772 -0.000681407
83 1 0.0513171 0.201138 0.0501962
84 1 0.998844 0.249732 0.0541588
85 1 0.09943 0.203516 0.000324735
86 1 0.151133 0.248513 0.00361671
87 1 0.151823 0.200357 0.0541649
88 1 0.102486 0.250145 0.0527321
89 1 0.197964 0.198284 0.00339829
90 1 0.248977 0.251704 0.999487
91 1 0.251597 0.203319 0.0500128
92 1 0.201085 0.249651 0.0497139
93 1 0.303043 0.198313 0.998705
94 1 0.352173 0.250885 0.999756
95 1 0.352443 0.195825 0.0456783
96 1 0.301754 0.250056 0.0486456
97 1 0.402546 0.200265 0.000283692
98 1 0.454339 0.249267 0.00269788
99 1 0.450137 0.202023 0.0487912
100 1 0.402061 0.252686 0.0489006
101 1 0.500601 0.202503 0.000748717
102 1 0.548464 0.247381 0.995824
103 1 0.54953 0.198943 0.0534074
104 1 0.500988 0.25105 0.0511733
105 1 0.597155 0.195959 0.00183583
106 1 0.64823 0.248769 0.00262232
107 1 0.650963 0.20164 0.0490815
108 1 0.59624 0.25235 0.0472238
109 1 0.697334 0.198865 0.00327533
110 1 0.748243 0.250455 0.00101271
111 1 0.750963 0.199095 0.05085
112 1 0.69697 0.248819 0.0506291
113 1 0.7993 0.201535 -0.000137637
114 1 0.850251 0.249628 0.00212831
115 1 0.848814 0.201333 0.0506052
116 1 0.802573 0.249365 0.0526617
117 1 0.898332 0.200671 0.00293289
118 1 0.951427 0.250516 -0.000343218
119 1 0.948989 0.202069 0.0527837
120 1 0.902586 0.249452 0.0511602
121 1 0.998496 0.303558 7.16582e-05
122 1 0.0504723 0.350159 0.000722196
123 1 0.048575 0.299947 0.0524125
124 1 0.997163 0.354536 0.0474379
125 1 0.099319 0.300995 0.00155803
126 1 0.149961 0.351013 0.000492238
127 1 0.152005 0.30331 0.0499361
128 1 0.097789 0.348367 0.0500213
129 1 0.201764 0.297712 0.999445
130 1 0.252775 0.351024 0.00176868
131 1 0.248916 0.30047 0.0530384
132 1 0.202584 0.34964 0.0508699
133 1 0.29996 0.298876 -0.000124799
134 1 0.352421 0.348075 0.000668375
135 1 0.350481 0.298802 0.0534324
136 1 0.301241 0.348599 0.0514904
137 1 0.405336 0.301647 0.999005
138 1 0.454014 0.348556 0.00463515
139 1 0.450779 0.300516 0.0499013
140 1 0.401524 0.348437 0.0515
141 1 0.503339 0.299253 0.00328884
142 1 0.549553 0.350536 0.00403202
143 1 0.547345 0.300294 0.0552794
144 1 0.499211 0.349627 0.0522051
145 1 0.597474 0.299459 0.9976
146 1 0.646724 0.348374 1.0001
147 1 0.648749 0.300683 0.0495576
148 1 0.599032 0.346888 0.0522788
149 1 0.696279 0.299599 0.00217879
150 1 0.746771 0.350464 0.00177501
151 1 0.746207 0.296559 0.0522079
152 1 0.699932 0.348929 0.0557677
153 1 0.795285 0.299738 0.00250221
154 1 0.846771 0.34846 0.000928618
155 1 0.847282 0.301939 0.0524118
156 1 0.797084 0.351674 0.048289
157 1 0.899031 0.299379 0.000452842
158 1 0.948019 0.35191 -0.000537094
159 1 0.949903 0.298417 0.0468125
160 1 0.896018 0.347439 0.0539503
161 1 0.00121152 0.40194 0.999145
162 1 0.0514272 0.453512 0.994521
163 1 0.0506571 0.402168 0.0499597
164 1 0.00315652 0.450078 0.0503929
165 1 0.102522 0.401473 0.00121741
166 1 0.150547 0.451698 0.997187
167 1 0.152111 0.39961 0.0479738
168 1 0.0943164 0.451741 0.0524406
169 1 0.199579 0.401953 0.000990633
170 1 0.248518 0.451828 0.998614
171 1 0.249968 0.398633 0.0496102
172 1 0.201347 0.448876 0.051046
173 1 0.303062 0.398577 0.00104684
174 1 0.350455 0.44974 0.000628374
175 1 0.350142 0.39873 0.0531304
176 1 0.2998 0.450172 0.0483777
177 1 0.40096 0.397493 0.00152761
178 1 0.450303 0.447105 0.999388
179 1 0.447725 0.398699 0.0485539
180 1 0.399712 0.447028 0.0537759
181 1 0.502891 0.39792 0.999751
182 1 0.549609 0.448462 0.00139148
183 1 0.549477 0.399645 0.0533035
184 1 0.497426 0.450086 0.0503037
185 1 0.599516 0.39778 0.00297567
186 1 0.650526 0.446163 0.00301661
187 1 0.649853 0.396088 0.0533098
188 1 0.598364 0.451118 0.0494654
189 1 0.701045 0.399687 0.00496691
190 1 0.749956 0.448134 0.00235305
191 1 0.749849 0.400996 0.0539992
192 1 0.701825 0.451685 0.0522385
193 1 0.797489 0.401784 0.00100329
194 1 0.853039 0.450858 0.999285
195 1 0.847007 0.400227 0.0490696
196 1 0.798533 0.449626 0.0484165
197 1 0.898301 0.397518 0.00215179
198 1 0.950596 0.452754 0.00122681
199 1 0.949751 0.404973 0.0497668
200 1 0.898756 0.451459 0.0515815
201 1 0.00123842 0.499899 0.997841
202 1 0.0515513 0.550792 0.997623
203 1 0.0503957 0.503746 0.0501254
204 1 0.99839 0.549157 0.0473842
205 1 0.101156 0.497651 0.00330627
206 1 0.14801 0.552208 0.00287143
207 1 0.148218 0.495569 0.0543499
208 1 0.0997713 0.552442 0.0519658
209 1 0.200667 0.499637 0.00190922
210 1 0.250134 0.548978 0.00055688
211 1 0.248866 0.502214 0.0512275
212 1 0.198626 0.548388 0.0507319
213 1 0.302257 0.498364 0.00275348
214 1 0.350181 0.551919 0.00260881
215 1 0.352021 0.500419 0.048737
216 1 0.301727 0.552226 0.0499917
217 1 0.399235 0.499118 0.0016373
218 1 0.449797 0.550565 0.00146237
219 1 0.448427 0.500544 0.0475916
220 1 0.402387 0.547059 0.0491234
221 1 0.497629 0.496848 -0.000343145
222 1 0.553276 0.549522 0.998259
223 1 0.550877 0.49986 0.0508662
224 1 0.500831 0.550827 0.0503253
225 1 0.604731 0.499046 0.00314309
226 1 0.652624 0.549642 1.0003
227 1 0.650497 0.500532 0.054283
228 1 0.6 0.549907 0.050168
229 1 0.698173 0.497375 0.00172185
230 1 0.746139 0.55238 1.00003
231 1 0.751518 0.500784 0.0508665
232 1 0.698246 0.550028 0.0509372
233 1 0.800223 0.499523 0.00264742
234 1 0.852373 0.546601 0.00148555
235 1 0.850079 0.497766 0.0518797
236 1 0.800159 0.549095 0.0518747
237 1 0.901837 0.498495 0.00104874
238 1 0.948036 0.547879 0.00103724
239 1 0.950013 0.500893 0.0484555
240 1 0.902322 0.547977 0.0531979
241 1 0.000160177 0.597314 0.998979
242 1 0.049124 0.650825 0.996915
243 1 0.0485307 0.601072 0.0503298
244 1 0.998766 0.648428 0.0485489
245 1 0.101411 0.601376 0.998872
246 1 0.150471 0.653731 0.999508
247 1 0.152849 0.605797 0.0485268
248 1 0.100705 0.650281 0.0488401
249 1 0.200304 0.601777 0.00147179
250 1 0.249731 0.651317 0.000487012
251 1 0.25068 0.600964 0.0481576
252 1 0.199836 0.653037 0.0501243
253 1 0.30243 0.603719 0.999301
254 1 0.350745 0.651966 0.000355874
255 1 0.352892 0.600862 0.0500707
256 1 0.299238 0.649629 0.0476713
257 1 0.398951 0.602389 0.00110106
258 1 0.448765 0.647802 0.998672
259 1 0.451392 0.602095 0.0496064
260 1 0.399167 0.651904 0.0509985
261 1 0.498183 0.60003 0.00130348
262 1 0.550244 0.654039 0.998191
263 1 0.550852 0.598865 0.0475485
264 1 0.500202 0.653618 0.0482415
265 1 0.597725 0.604391 0.00114689
266 1 0.647234 0.65177 0.999875
267 1 0.652771 0.600277 0.0488626
268 1 0.601465 0.65263 0.0501054
269 1 0.699137 0.607633 0.998774
270 1 0.748603 0.652696 0.00353072
271 1 0.750823 0.596442 0.0507764
272 1 0.702527 0.652822 0.0511906
273 1 0.80021 0.597611 0.00184826
274 1 0.848692 0.647152 0.0021745
275 1 0.853869 0.599835 0.0524828
276 1 0.799079 0.649011 0.0489468
277 1 0.902078 0.596426 -3.52247e-05
278 1 0.951601 0.645067 0.999635
279 1 0.952883 0.598091 0.0540006
280 1 0.900139 0.650921 0.0505704
281 1 0.000199118 0.69978 0.00182996
282 1 0.0533506 0.751312 0.998382
283 1 0.0510103 0.700653 0.0518758
284 1 0.998996 0.748885 0.0463518
285 1 0.102657 0.700548 0.999655
286 1 0.15047 0.750138 0.999989
287 1 0.148179 0.70492 0.0519015
288 1 0.0996822 0.752096 0.0483592
289 1 0.202878 0.700929 0.995864
290 1 0.248112 0.748782 0.000102654
291 1 0.252098 0.698635 0.0507646
292 1 0.202614 0.743196 0.0525421
293 1 0.302413 0.698948 0.999957
294 1 0.350765 0.7484 0.000547375
295 1 0.349914 0.697669 0.0508424
296 1 0.300243 0.748776 0.0504309
297 1 0.399824 0.700107 0.00167499
298 1 0.447751 0.751854 0.000920061
299 1 0.449764 0.700577 0.0460485
300 1 0.397753 0.747807 0.0497475
301 1 0.500923 0.70365 0.997397
302 1 0.548056 0.751933 0.998977
303 1 0.55383 0.703389 0.0497513
304 1 0.501844 0.751628 0.0511028
305 1 0.598824 0.705152 0.99789
306 1 0.65125 0.754101 0.997825
307 1 0.64631 0.703384 0.0489892
308 1 0.599209 0.751998 0.0503804
309 1 0.696436 0.70319 0.00267263
310 1 0.748937 0.751954 0.00158632
311 1 0.752576 0.702376 0.0502669
312 1 0.699751 0.756654 0.0502784
313 1 0.800826 0.699398 8.50523e-05
314 1 0.84589 0.750591 0.00208735
315 1 0.849034 0.702189 0.0467937
316 1 0.798166 0.750753 0.0505448
317 1 0.900956 0.69962 0.998621
318 1 0.947725 0.748824 0.0052037
319 1 0.950602 0.698203 0.0506185
320 1 0.899221 0.750275 0.0515926
321 1 0.999896 0.797931 0.000998694
322 1 0.0510894 0.846679 0.0015315
323 1 0.0502699 0.798472 0.0496261
324 1 0.99833 0.847003 0.0501739
325 1 0.100322 0.799656 0.00251094
326 1 0.152004 0.846901 0.998821
327 1 0.149602 0.799281 0.0513627
328 1 0.100909 0.848786 0.0507328
329 1 0.197798 0.797085 0.00269297
330 1 0.245885 0.848082 0.0019546
331 1 0.249754 0.799076 0.0550622
332 1 0.198446 0.849136 0.0508675
333 1 0.29663 0.799085 0.998841
334 1 0.34844 0.85047 0.00143498
335 1 0.346404 0.798057 0.0516362
336 1 0.299643 0.848436 0.0497028
337 1 0.397947 0.799629 0.00425467
338 1 0.448371 0.848583 0.997026
339 1 0.450581 0.799772 0.0492617
340 1 0.398947 0.849279 0.0502607
341 1 0.499421 0.798921 0.000352052
342 1 0.547642 0.85126 0.998512
343 1 0.550052 0.797641 0.0485876
344 1 0.495005 0.847414 0.0474643
345 1 0.60033 0.802774 0.995829
346 1 0.649885 0.851377 0.998733
347 1 0.649364 0.802898 0.0453872
348 1 0.596269 0.848698 0.0473505
349 1 0.699221 0.801183 0.997408
350 1 0.750305 0.849487 0.00300443
351 1 0.7504 0.799343 0.0470813
352 1 0.701202 0.848816 0.0487553
353 1 0.798915 0.800348 0.99984
354 1 0.848636 0.849723 0.000150495
355 1 0.849667 0.799082 0.0499683
356 1 0.799414 0.849518 0.0506756
357 1 0.898457 0.797937 0.0024053
358 1 0.947667 0.850255 0.999479
359 1 0.952112 0.798304 0.0541955
360 1 0.902208 0.8477 0.0507354
361 1 0.996251 0.898162 0.00191076
362 1 0.0490364 0.947117 0.00116067
363 1 0.0507369 0.899171 0.0540757
364 1 0.992937 0.9468 0.0508458
365 1 0.097439 0.89879 -0.000304482
366 1 0.15406 0.948737 0.999094
367 1 0.148096 0.898676 0.0484159
368 1 0.0993692 0.950755 0.0515596
369 1 0.198188 0.897354 0.0029371
370 1 0.250556 0.946678 8.83774e-05
371 1 0.251791 0.898246 0.0517653
372 1 0.199946 0.947239 0.049296
373 1 0.300178 0.898016 0.998417
374 1 0.348092 0.948352 0.00213933
375 1 0.34957 0.897596 0.0518648
376 1 0.299558 0.948162 0.0503888
377 1 0.398676 0.896205 0.997252
378 1 0.446663 0.946329 0.999034
379 1 0.447211 0.90076 0.0478777
380 1 0.396526 0.946032 0.0450784
381 1 0.50025 0.901498 0.999827
382 1 0.553867 0.948069 5.55316e-05
383 1 0.546508 0.899253 0.0464803
384 1 0.501579 0.951721 0.0516264
385 1 0.599957 0.897221 0.999754
386 1 0.652889 0.94886 0.999683
387 1 0.652264 0.899399 0.0472349
388 1 0.60219 0.947124 0.0494458
389 1 0.701054 0.900816 0.996778
390 1 0.750453 0.94889 0.994449
391 1 0.747336 0.901467 0.0487702
392 1 0.703222 0.952441 0.048383
393 1 0.802659 0.900472 5.62035e-05
394 1 0.849722 0.94786 0.998525
395 1 0.849248 0.900005 0.0498226
396 1 0.800122 0.94797 0.04937
397 1 0.894219 0.899351 1.00042
398 1 0.946062 0.949053 0.0032766
399 1 0.947091 0.899591 0.051094
400 1 0.898931 0.949345 0.0525527
401 1 0.994291 1.0007 0.0995715
402 1 0.0532117 0.0490623 0.0980627
403 1 0.0521274 0.00153531 0.147065
404 1 0.000886888 0.0496938 0.147248
405 1 0.100659 0.000997797 0.100327
406 1 0.148396 0.0487263 0.0981463
407 1 0.147469 0.996361 0.149858
408 1 0.102551 0.0484264 0.151542
409 1 0.199521 0.995702 0.101244
410 1 0.249374 0.0463545 0.0983914
411 1 0.2496 0.00200004 0.151553
412 1 0.195474 0.0461128 0.149946
413 1 0.298929 0.00047327 0.0992856
414 1 0.349122 0.0506249 0.0962199
415 1 0.347761 0.00273221 0.15054
416 1 0.299113 0.0529849 0.153297
417 1 0.398419 0.997202 0.100905
418 1 0.452021 0.0489957 0.100021
419 1 0.45006 0.992093 0.150476
420 1 0.401333 0.0471621 0.15194
421 1 0.502001 0.997798 0.100004
422 1 0.553734 0.0437112 0.0989697
423 1 0.553104 0.997454 0.146808
424 1 0.502318 0.0475756 0.150278
425 1 0.60359 0.997804 0.0991107
426 1 0.649788 0.0517509 0.0987472
427 1 0.653817 0.997964 0.145669
428 1 0.607054 0.0482775 0.148484
429 1 0.697281 0.999094 0.0973034
430 1 0.749428 0.0491205 0.100015
431 1 0.746689 0.00120756 0.15366
432 1 0.699639 0.0512065 0.152981
433 1 0.800029 0.00324984 0.102056
434 1 0.847412 0.0535995 0.103337
435 1 0.84533 0.00231091 0.149823
436 1 0.796728 0.0498143 0.151862
437 1 0.895797 0.000476306 0.103656
438 1 0.946098 0.0475472 0.10044
439 1 0.94753 0.999532 0.149245
440 1 0.89986 0.0530768 0.147456
441 1 0.995107 0.100591 0.0974647
442 1 0.0512552 0.151837 0.1007
443 1 0.0548955 0.0987726 0.148153
444 1 0.00218848 0.151595 0.147513
445 1 0.104571 0.102359 0.0998021
446 1 0.154188 0.152014 0.101549
447 1 0.152095 0.0975017 0.153058
448 1 0.0986859 0.149243 0.149649
449 1 0.197401 0.095392 0.099532
450 1 0.249355 0.149157 0.0977099
451 1 0.2479 0.0950038 0.147893
452 1 0.202449 0.146732 0.148091
453 1 0.298071 0.096951 0.101668
454 1 0.349908 0.146084 0.100538
455 1 0.35131 0.098385 0.152173
456 1 0.299723 0.148897 0.150787
457 1 0.399454 0.0960931 0.101922
458 1 0.450895 0.14912 0.10136
459 1 0.453268 0.0968045 0.150982
460 1 0.401315 0.145472 0.15296
461 1 0.502491 0.0979505 0.100319
462 1 0.548185 0.148135 0.102938
463 1 0.552349 0.0943886 0.1486
464 1 0.498328 0.146944 0.152337
465 1 0.599813 0.102861 0.100828
466 1 0.648868 0.152531 0.100337
467 1 0.651055 0.0999446 0.146905
468 1 0.602749 0.148019 0.152412
469 1 0.700245 0.0996623 0.0991614
470 1 0.748304 0.152588 0.102609
471 1 0.74982 0.102177 0.151156
472 1 0.698552 0.1478 0.151537
473 1 0.797896 0.100489 0.0989987
474 1 0.848555 0.152142 0.0996148
475 1 0.846024 0.101261 0.150951
476 1 0.799952 0.150572 0.154222
477 1 0.897025 0.10293 0.100309
478 1 0.947368 0.151682 0.100859
479 1 0.950715 0.100657 0.148314
480 1 0.898808 0.149636 0.150826
481 1 1.00016 0.202179 0.0992821
482 1 0.0474812 0.250223 0.0978079
483 1 0.0512267 0.197773 0.149973
484 1 0.000396285 0.249998 0.150951
485 1 0.100113 0.201821 0.102411
486 1 0.15354 0.249643 0.102164
487 1 0.152097 0.198545 0.149894
488 1 0.100476 0.249742 0.150757
489 1 0.201884 0.20247 0.103466
490 1 0.25261 0.251222 0.101928
491 1 0.251065 0.198305 0.151145
492 1 0.202106 0.250662 0.153741
493 1 0.300593 0.198313 0.102932
494 1 0.34941 0.251443 0.0994602
495 1 0.351398 0.199588 0.151075
496 1 0.301105 0.248446 0.151848
497 1 0.402028 0.200147 0.0999791
498 1 0.449817 0.247552 0.0974271
499 1 0.452377 0.198965 0.149845
500 1 0.401235 0.249999 0.149545
501 1 0.49932 0.196124 0.103969
502 1 0.547786 0.249179 0.10577
503 1 0.549656 0.197307 0.150865
504 1 0.499184 0.252983 0.15123
505 1 0.599544 0.200029 0.10017
506 1 0.652197 0.248875 0.101157
507 1 0.648815 0.197419 0.151924
508 1 0.598633 0.24507 0.151493
509 1 0.699146 0.200856 0.100838
510 1 0.749853 0.248791 0.100553
511 1 0.752519 0.203535 0.1484
512 1 0.702355 0.252598 0.153443
513 1 0.800486 0.199555 0.10027
514 1 0.848315 0.250182 0.0992242
515 1 0.848063 0.201207 0.15221
516 1 0.802172 0.25231 0.150172
517 1 0.896004 0.201707 0.0990376
518 1 0.949055 0.254615 0.0998076
519 1 0.947515 0.201824 0.148308
520 1 0.897881 0.253033 0.151616
521 1 0.997907 0.300459 0.0987064
522 1 0.0523809 0.35226 0.100895
523 1 0.0476671 0.302303 0.147499
524 1 0.999926 0.34977 0.144452
525 1 0.102125 0.300354 0.103045
526 1 0.150819 0.350925 0.0976635
527 1 0.152052 0.300056 0.151002
528 1 0.101115 0.352842 0.153391
529 1 0.197848 0.3014 0.100658
530 1 0.249531 0.349733 0.102717
531 1 0.248786 0.298474 0.152061
532 1 0.197919 0.350468 0.15068
533 1 0.300065 0.298913 0.0987299
534 1 0.350644 0.346928 0.101414
535 1 0.351036 0.295002 0.149356
536 1 0.299658 0.346899 0.149167
537 1 0.401098 0.299525 0.0979747
538 1 0.449032 0.348152 0.101772
539 1 0.448852 0.300061 0.150554
540 1 0.396989 0.347354 0.151945
541 1 0.498119 0.301996 0.101126
542 1 0.547934 0.351982 0.103243
543 1 0.553342 0.296412 0.15364
544 1 0.499784 0.351765 0.148641
545 1 0.599118 0.29417 0.103556
546 1 0.647455 0.345799 0.104069
547 1 0.649439 0.297176 0.152645
548 1 0.599773 0.347463 0.152844
549 1 0.699297 0.300513 0.102699
550 1 0.751612 0.348261 0.100209
551 1 0.750764 0.300777 0.153018
552 1 0.69438 0.355704 0.150402
553 1 0.800638 0.299523 0.101294
554 1 0.848723 0.350731 0.0997382
555 1 0.850889 0.299738 0.149358
556 1 0.800752 0.352962 0.149338
557 1 0.896753 0.299871 0.0994511
558 1 0.947729 0.349606 0.0987395
559 1 0.945439 0.301064 0.146154
560 1 0.900824 0.351564 0.14718
561 1 0.000325615 0.401111 0.0974096
562 1 0.0491996 0.450834 0.103034
563 1 0.0492205 0.400939 0.155648
564 1 0.00222577 0.450102 0.150442
565 1 0.104583 0.401556 0.0992752
566 1 0.149424 0.45312 0.105845
567 1 0.146505 0.400412 0.150165
568 1 0.0988661 0.451091 0.151718
569 1 0.200673 0.402751 0.100204
570 1 0.249127 0.452055 0.0987178
571 1 0.248291 0.398456 0.153628
572 1 0.201878 0.452452 0.149111
573 1 0.298155 0.400283 0.101538
574 1 0.351355 0.449013 0.0996871
575 1 0.34716 0.400426 0.153221
576 1 0.298794 0.452838 0.14651
577 1 0.399629 0.399472 0.1016
578 1 0.448835 0.449103 0.0998687
579 1 0.447782 0.396661 0.149571
580 1 0.402605 0.45006 0.150481
581 1 0.495119 0.401338 0.0995068
582 1 0.54848 0.449341 0.0993759
583 1 0.556306 0.402225 0.152729
584 1 0.501295 0.445699 0.149767
585 1 0.599964 0.399188 0.101694
586 1 0.650046 0.45299 0.0989769
587 1 0.645847 0.403082 0.148722
588 1 0.601064 0.452445 0.150721
589 1 0.696651 0.399245 0.10123
590 1 0.750548 0.452941 0.101826
591 1 0.749202 0.398236 0.14758
592 1 0.700945 0.447178 0.144624
593 1 0.800733 0.400108 0.101456
594 1 0.848295 0.44895 0.104026
595 1 0.854054 0.398176 0.150954
596 1 0.798103 0.450599 0.150893
597 1 0.898691 0.39987 0.0995534
598 1 0.952119 0.452404 0.100363
599 1 0.949755 0.402792 0.142567
600 1 0.900813 0.451569 0.150552
601 1 0.00343574 0.49839 0.0995803
602 1 0.0513373 0.552673 0.101112
603 1 0.0512667 0.504242 0.152322
604 1 0.00121783 0.550255 0.149191
605 1 0.0967632 0.501911 0.101353
606 1 0.150166 0.551258 0.101696
607 1 0.151355 0.501768 0.153343
608 1 0.0997463 0.55265 0.153403
609 1 0.198665 0.502041 0.102524
610 1 0.247139 0.552621 0.0991013
611 1 0.250302 0.501563 0.147946
612 1 0.206415 0.553477 0.152919
613 1 0.30289 0.504623 0.0980848
614 1 0.350867 0.552818 0.0994423
615 1 0.351154 0.503013 0.147239
616 1 0.299026 0.552203 0.151082
617 1 0.401882 0.500167 0.0986792
618 1 0.452115 0.550913 0.0976687
619 1 0.448472 0.50288 0.150589
620 1 0.398781 0.549939 0.148412
621 1 0.497587 0.500139 0.10014
622 1 0.548831 0.550604 0.101549
623 1 0.548394 0.497397 0.147231
624 1 0.500652 0.548628 0.150736
625 1 0.598292 0.499572 0.101014
626 1 0.650022 0.548376 0.099703
627 1 0.650747 0.499193 0.151826
628 1 0.600294 0.550782 0.149615
629 1 0.703439 0.50067 0.10068
630 1 0.74936 0.545976 0.102752
631 1 0.75046 0.498035 0.149477
632 1 0.698006 0.547858 0.1518
633 1 0.801921 0.501408 0.100654
634 1 0.849135 0.553299 0.10054
635 1 0.850482 0.499135 0.153331
636 1 0.801303 0.549885 0.151057
637 1 0.899375 0.497595 0.102359
638 1 0.950516 0.550314 0.100114
639 1 0.952816 0.503156 0.148223
640 1 0.897267 0.547125 0.150409
641 1 0.999959 0.599004 0.103565
642 1 0.046322 0.648783 0.101112
643 1 0.0469465 0.601084 0.149868
644 1 0.998468 0.651584 0.151661
645 1 0.0999872 0.603909 0.0982879
646 1 0.150946 0.651254 0.0993715
647 1 0.152409 0.599224 0.153409
648 1 0.0950982 0.652289 0.150599
649 1 0.200274 0.604421 0.0996505
650 1 0.253422 0.651566 0.102621
651 1 0.251596 0.602243 0.152314
652 1 0.203129 0.652437 0.152826
653 1 0.294995 0.602961 0.100347
654 1 0.35043 0.649756 0.100532
655 1 0.348376 0.598002 0.151175
656 1 0.303626 0.647928 0.151328
657 1 0.404316 0.601124 0.105386
658 1 0.449968 0.653485 0.10515
659 1 0.451387 0.605368 0.151404
660 1 0.401497 0.650284 0.151962
661 1 0.50042 0.604731 0.100878
662 1 0.553884 0.654747 0.0981185
663 1 0.552258 0.603354 0.149562
664 1 0.499548 0.653875 0.151957
665 1 0.598887 0.603453 0.0966218
666 1 0.65446 0.649353 0.0995428
667 1 0.65263 0.597644 0.146191
668 1 0.600811 0.652855 0.151356
669 1 0.705067 0.599602 0.100375
670 1 0.751618 0.649043 0.098137
671 1 0.747296 0.59685 0.153299
672 1 0.700228 0.650257 0.147372
673 1 0.79772 0.597424 0.102587
674 1 0.846493 0.648842 0.103625
675 1 0.850239 0.598433 0.153377
676 1 0.798864 0.648889 0.152646
677 1 0.901219 0.598202 0.102536
678 1 0.948077 0.649472 0.101165
679 1 0.949041 0.597258 0.152619
680 1 0.899059 0.646996 0.150191
681 1 0.999104 0.695862 0.101247
682 1 0.0478521 0.751027 0.0982965
683 1 0.0478498 0.698871 0.151138
684 1 0.00120194 0.746558 0.147806
685 1 0.0979135 0.702771 0.0993154
686 1 0.148741 0.748936 0.104374
687 1 0.148372 0.701881 0.153404
688 1 0.0998549 0.751114 0.153373
689 1 0.201097 0.701786 0.105233
690 1 0.251516 0.750972 0.104917
691 1 0.255891 0.694751 0.151997
692 1 0.204355 0.750149 0.152971
693 1 0.303338 0.699525 0.0980121
694 1 0.351177 0.74831 0.0995178
695 1 0.352563 0.699861 0.150668
696 1 0.299921 0.750683 0.153046
697 1 0.400103 0.700467 0.100911
698 1 0.451067 0.749616 0.0975246
699 1 0.451227 0.702496 0.152428
700 1 0.401805 0.749618 0.148031
701 1 0.497539 0.702519 0.0978212
702 1 0.550671 0.752107 0.102148
703 1 0.551697 0.703742 0.151127
704 1 0.499116 0.751074 0.148559
705 1 0.600032 0.704429 0.0994194
706 1 0.650981 0.757178 0.0960621
707 1 0.649363 0.704163 0.146432
708 1 0.602759 0.753051 0.146903
709 1 0.699795 0.704953 0.096767
710 1 0.749224 0.753346 0.0989163
711 1 0.745802 0.704465 0.150488
712 1 0.698491 0.752539 0.148428
713 1 0.800109 0.701446 0.0989447
714 1 0.848775 0.749667 0.100477
715 1 0.849902 0.7028 0.148838
716 1 0.800855 0.749767 0.152308
717 1 0.898546 0.700491 0.0984936
718 1 0.948396 0.748015 0.0973069
719 1 0.946278 0.700693 0.148477
720 1 0.899331 0.749361 0.148271
721 1 0.998654 0.799404 0.100864
722 1 0.0439538 0.848362 0.100743
723 1 0.0480021 0.800482 0.146018
724 1 0.995924 0.850079 0.151345
725 1 0.101066 0.798138 0.101672
726 1 0.152432 0.849453 0.100662
727 1 0.150733 0.8 0.152581
728 1 0.10133 0.848007 0.149268
729 1 0.199648 0.798857 0.0991851
730 1 0.24865 0.848659 0.10249
731 1 0.252049 0.799862 0.154283
732 1 0.20228 0.847681 0.152368
733 1 0.300007 0.798629 0.102759
734 1 0.350424 0.850753 0.100921
735 1 0.348169 0.800333 0.154437
736 1 0.303886 0.850877 0.151425
737 1 0.403408 0.797308 0.100745
738 1 0.447553 0.850896 0.0994537
739 1 0.450842 0.80138 0.149476
740 1 0.397893 0.848815 0.151591
741 1 0.499777 0.802438 0.100748
742 1 0.54952 0.850321 0.0999156
743 1 0.550294 0.801335 0.149015
744 1 0.497316 0.854735 0.147865
745 1 0.596018 0.800857 0.097633
746 1 0.650974 0.85242 0.0974846
747 1 0.647775 0.802662 0.146464
748 1 0.599124 0.853569 0.150826
749 1 0.700745 0.802128 0.0999717
750 1 0.7491 0.848474 0.0981241
751 1 0.749754 0.799707 0.149063
752 1 0.700091 0.848311 0.148422
753 1 0.798937 0.79973 0.10081
754 1 0.850436 0.851419 0.0968933
755 1 0.851724 0.799063 0.148869
756 1 0.797337 0.849752 0.14923
757 1 0.897517 0.797453 0.10009
758 1 0.947651 0.852696 0.102792
759 1 0.946961 0.796071 0.145885
760 1 0.897406 0.850018 0.150789
761 1 0.997909 0.898723 0.102679
762 1 0.0468472 0.952857 0.098176
763 1 0.0494989 0.898944 0.149229
764 1 0.997583 0.950902 0.146224
765 1 0.101186 0.89822 0.10211
766 1 0.148862 0.948825 0.100071
767 1 0.148218 0.899248 0.14974
768 1 0.100353 0.949358 0.149646
769 1 0.199901 0.902885 0.102872
770 1 0.250419 0.951799 0.10083
771 1 0.248754 0.896861 0.151027
772 1 0.196749 0.946644 0.151455
773 1 0.30116 0.898606 0.0980279
774 1 0.349017 0.950129 0.0986287
775 1 0.347719 0.904329 0.149653
776 1 0.297388 0.94947 0.151143
777 1 0.398715 0.901329 0.101366
778 1 0.452364 0.947227 0.0997351
779 1 0.445495 0.899616 0.149366
780 1 0.397983 0.947419 0.152574
781 1 0.499311 0.898903 0.0961986
782 1 0.549266 0.948042 0.0983921
783 1 0.548762 0.899419 0.148602
784 1 0.50115 0.947352 0.148264
785 1 0.59701 0.898584 0.0957998
786 1 0.651401 0.948923 0.0960514
787 1 0.649538 0.900599 0.148103
788 1 0.601007 0.948025 0.143997
789 1 0.703663 0.899259 0.0994862
790 1 0.752584 0.953599 0.100874
791 1 0.747739 0.902891 0.151483
792 1 0.703122 0.949524 0.150983
793 1 0.794797 0.899724 0.0989848
794 1 0.847065 0.946659 0.101543
795 1 0.847421 0.898573 0.151675
796 1 0.799692 0.952154 0.152582
797 1 0.896933 0.900713 0.10153
798 1 0.947076 0.949614 0.100054
799 1 0.945192 0.900787 0.150354
800 1 0.897605 0.95016 0.149975
801 1 1.00031 0.998547 0.195304
802 1 0.051862 0.0513794 0.198288
803 1 0.0531713 0.000485174 0.246546
804 1 0.998217 0.0513537 0.245039
805 1 0.101052 0.99915 0.198096
806 1 0.150016 0.0508096 0.201436
807 1 0.148892 0.00296261 0.250405
808 1 0.0992979 0.0515474 0.250028
809 1 0.197175 -0.000291239 0.19938
810 1 0.246071 0.0491558 0.2032
811 1 0.252858 0.00126207 0.251674
812 1 0.200007 0.0508291 0.25237
813 1 0.297865 0.99682 0.202733
814 1 0.347847 0.0503762 0.202262
815 1 0.350311 0.00143942 0.250509
816 1 0.300182 0.0537603 0.250269
817 1 0.400399 0.998799 0.200817
818 1 0.450698 0.0454176 0.199454
819 1 0.448982 0.999106 0.248009
820 1 0.40073 0.0504562 0.250574
821 1 0.499065 0.996822 0.198835
822 1 0.549277 0.0449467 0.200101
823 1 0.550338 0.000630949 0.250814
824 1 0.497902 0.0471179 0.249912
825 1 0.600831 0.00127081 0.201643
826 1 0.649761 0.0505697 0.199543
827 1 0.651337 0.00357463 0.252238
828 1 0.600181 0.0504619 0.25305
829 1 0.699721 0.0025172 0.202025
830 1 0.752864 0.0502124 0.201494
831 1 0.749863 0.00189442 0.25102
832 1 0.701544 0.0507165 0.247825
833 1 0.801104 0.00215487 0.203256
834 1 0.851648 0.0510479 0.202171
835 1 0.847909 0.00307253 0.249508
836 1 0.800564 0.0490254 0.252384
837 1 0.900216 0.00280863 0.201193
838 1 0.951621 0.0521883 0.195754
839 1 0.95172 0.000439449 0.245669
840 1 0.904787 0.0518616 0.247547
841 1 0.000458965 0.101461 0.195453
842 1 0.0518279 0.150325 0.200063
843 1 0.0502968 0.100125 0.251401
844 1 0.000245405 0.152206 0.250508
845 1 0.100832 0.105129 0.199804
846 1 0.149976 0.150547 0.204573
847 1 0.148752 0.0989662 0.251189
848 1 0.103368 0.149691 0.251552
849 1 0.202054 0.099654 0.200233
850 1 0.247601 0.1493 0.200276
851 1 0.24957 0.100224 0.25192
852 1 0.199477 0.15286 0.249631
853 1 0.298738 0.102488 0.200316
854 1 0.350582 0.151926 0.198027
855 1 0.350206 0.0999449 0.251944
856 1 0.301458 0.14742 0.249195
857 1 0.401832 0.10033 0.200661
858 1 0.44894 0.146027 0.204832
859 1 0.448831 0.098871 0.25261
860 1 0.39783 0.148322 0.250719
861 1 0.499982 0.0971586 0.202167
862 1 0.551815 0.145861 0.199946
863 1 0.549779 0.094593 0.247834
864 1 0.502435 0.147082 0.251987
865 1 0.599101 0.0951471 0.198888
866 1 0.651798 0.147371 0.201967
867 1 0.648419 0.0987449 0.25117
868 1 0.602002 0.147422 0.252768
869 1 0.700447 0.0968226 0.202985
870 1 0.753349 0.147292 0.203443
871 1 0.753759 0.098095 0.249212
872 1 0.699681 0.146826 0.250217
873 1 0.80201 0.0998989 0.201571
874 1 0.849119 0.152454 0.201348
875 1 0.847445 0.100385 0.25138
876 1 0.798946 0.149963 0.250304
877 1 0.901282 0.101336 0.199135
878 1 0.949776 0.14923 0.198383
879 1 0.94924 0.100535 0.249445
880 1 0.896573 0.151219 0.250167
881 1 0.001034 0.19986 0.199587
882 1 0.0519614 0.250376 0.200185
883 1 0.0514657 0.199189 0.251177
884 1 0.000836745 0.250995 0.248428
885 1 0.101514 0.201017 0.199299
886 1 0.150024 0.252242 0.20055
887 1 0.150526 0.200339 0.250489