ITEM: TIMESTEP
3700
ITEM: NUMBER OF ATOMS
4000
ITEM: BOX BOUNDS pp pp pp
0.0000000000000000e+00 1.6795961913825074e+01
0.0000000000000000e+00 1.6795961913825074e+01
0.0000000000000000e+00 1.6795961913825074e+01
ITEM: ATOMS id type xs ys zs
1 1 0.999444 0.99965 0.999072
2 1 0.0485662 0.0527856 0.998921
3 1 0.0491252 0.000290146 0.0477561
4 1 0.997064 0.0514866 0.0499365
5 1 0.100746 0.00226051 0.998127
6 1 0.15085 0.0530339 0.996878
7 1 0.148117 0.00262801 0.0477111
8 1 0.101611 0.0516538 0.0477521
9 1 0.198277 0.998677 0.000496761
10 1 0.25059 0.0523842 0.000379774
11 1 0.250781 0.000450358 0.0485565
12 1 0.197784 0.0493363 0.0507695
13 1 0.299131 0.00325196 -9.91359e-05
14 1 0.350453 0.051819 0.00152716
15 1 0.351644 0.00315185 0.048838
16 1 0.30237 0.0527873 0.0508022
17 1 0.399338 0.00428105 0.000294696
18 1 0.452302 0.0501036 0.00101821
19 1 0.448548 0.00192837 0.0507008
20 1 0.398257 0.0515214 0.0511265
21 1 0.501039 0.999374 0.00343347
22 1 0.550307 0.0523223 0.999957
23 1 0.552637 0.999 0.0519002
24 1 0.501241 0.0492864 0.0501782
25 1 0.600538 0.00237658 0.997827
26 1 0.652105 0.0530452 0.00228506
27 1 0.649808 0.00113366 0.0479676
28 1 0.599958 0.048347 0.0512338
29 1 0.700647 0.00273823 0.99966
30 1 0.751642 0.0540319 0.0012567
31 1 0.748293 1.00002 0.0553854
32 1 0.69924 0.0488459 0.0532151
33 1 0.795996 0.00603141 0.00465028
34 1 0.849207 0.048432 0.000645078
35 1 0.84928 0.998248 0.0534302
36 1 0.798903 0.0521626 0.052613
37 1 0.90252 0.998366 -4.93754e-05
38 1 0.950631 0.0517106 0.999225
39 1 0.950302 0.99894 0.0499942
40 1 0.899189 0.0497233 0.0476312
41 1 8.92843e-05 0.101961 0.997588
42 1 0.0531685 0.154361 0.997509
43 1 0.0501444 0.104645 0.0443441
44 1 0.998414 0.15278 0.0477584
45 1 0.100565 0.100928 0.999166
46 1 0.150507 0.150055 0.00172731
47 1 0.151101 0.102265 0.0501468
48 1 0.0974988 0.151625 0.0491932
49 1 0.198208 0.0992438 0.994615
50 1 0.250243 0.153624 0.00119818
51 1 0.248942 0.101447 0.0453345
52 1 0.201526 0.152367 0.0471653
53 1 0.298666 0.0997354 0.000685585
54 1 0.349389 0.14991 0.00049101
55 1 0.349538 0.101312 0.0500915
56 1 0.300018 0.151837 0.0520696
57 1 0.398108 0.0995191 0.00175502
58 1 0.449284 0.15076 0.0014338
59 1 0.448983 0.100056 0.0505501
60 1 0.396717 0.150348 0.0488288
61 1 0.499303 0.0992946 0.00228932
62 1 0.551719 0.149753 0.0021602
63 1 0.549235 0.0997714 0.0513096
64 1 0.500887 0.149307 0.050873
65 1 0.602238 0.102182 0.00156603
66 1 0.651774 0.151273 -0.000223821
67 1 0.648807 0.101055 0.0516194
68 1 0.598834 0.150025 0.0547383
69 1 0.699185 0.100946 0.00445924
70 1 0.748865 0.148532 0.996546
71 1 0.752183 0.101639 0.0526659
72 1 0.702449 0.150962 0.0535188
73 1 0.798468 0.103093 0.000371916
74 1 0.850064 0.149752 0.00226923
75 1 0.848342 0.100004 0.0511172
76 1 0.7958 0.152672 0.049776
77 1 0.897873 0.101249 0.999773
78 1 0.948926 0.150084 0.995638
79 1 0.946149 0.101516 0.0515521
80 1 0.899513 0.150535 0.0474756
81 1 0.999651 0.203736 0.999848
82 1 0.0491161 0.256635 2.69791e-05
83 1 0.0526675 0.202598 0.0512232
84 1 5.25077e-05 0.252282 0.0471701
85 1 0.102129 0.201723 0.00215395
86 1 0.149626 0.250517 0.0017684
87 1 0.15102 0.199256 0.0500222
88 1 0.102539 0.250399 0.0503737
89 1 0.200768 0.20067 0.00101739
90 1 0.250819 0.252107 0.997504
91 1 0.251438 0.198248 0.0493846
92 1 0.201624 0.246986 0.0495661
93 1 0.300534 0.200122 0.998269
94 1 0.350634 0.250521 0.9997
95 1 0.354063 0.201764 0.05034
96 1 0.299492 0.247563 0.0477419
97 1 0.399974 0.202659 0.998294
98 1 0.452944 0.252606 0.997349
99 1 0.450489 0.199993 0.047873
100 1 0.402552 0.254062 0.0454954
101 1 0.500555 0.199874 0.999031
102 1 0.54968 0.252388 0.997797
103 1 0.548682 0.198076 0.0523093
104 1 0.49713 0.250758 0.0483332
105 1 0.599153 0.204926 0.999564
106 1 0.651881 0.252319 0.99722
107 1 0.651591 0.206629 0.0476882
108 1 0.601503 0.251284 0.0477415
109 1 0.702946 0.202894 0.000684499
110 1 0.750299 0.253171 0.999521
111 1 0.748946 0.1998 0.0490596
112 1 0.702735 0.250395 0.0479594
113 1 0.797676 0.201413 0.00118599
114 1 0.849868 0.253296 0.9981
115 1 0.847966 0.19932 0.0508375
116 1 0.798972 0.252303 0.0471193
117 1 0.902003 0.20138 0.998418
118 1 0.948795 0.253147 0.998599
119 1 0.948069 0.201203 0.0474383
120 1 0.900239 0.252798 0.0527858
121 1 0.00065911 0.300467 0.999529
122 1 0.0495336 0.349509 0.000879593
123 1 0.0527486 0.299351 0.0533208
124 1 0.997115 0.351003 0.0488685
125 1 0.0997045 0.301084 0.00175836
126 1 0.14975 0.348519 0.998215
127 1 0.148831 0.299951 0.0510052
128 1 0.100388 0.348828 0.0525932
129 1 0.198591 0.300812 0.999827
130 1 0.248773 0.349261 0.99869
131 1 0.247413 0.297968 0.0504538
132 1 0.200689 0.353312 0.0482757
133 1 0.298372 0.304358 0.99944
134 1 0.347139 0.354013 0.999586
135 1 0.350738 0.299944 0.048326
136 1 0.295625 0.352563 0.0486898
137 1 0.396938 0.298925 0.997655
138 1 0.449405 0.349656 0.999167
139 1 0.449683 0.30204 0.0514194
140 1 0.398677 0.351134 0.0480425
141 1 0.500625 0.300693 0.00255767
142 1 0.549805 0.351 0.000225201
143 1 0.550794 0.301112 0.0489047
144 1 0.497182 0.354952 0.0462172
145 1 0.602186 0.299277 0.999051
146 1 0.652357 0.348254 0.00262081
147 1 0.650589 0.298019 0.0498933
148 1 0.598498 0.34944 0.047393
149 1 0.700605 0.301943 0.999718
150 1 0.749755 0.352269 0.997963
151 1 0.751892 0.303809 0.0517184
152 1 0.702314 0.351214 0.0513868
153 1 0.802729 0.304028 0.999094
154 1 0.850765 0.352318 0.997905
155 1 0.850512 0.301373 0.0507639
156 1 0.801045 0.349132 0.0507113
157 1 0.900997 0.303199 0.000850301
158 1 0.949237 0.351706 0.00191744
159 1 0.948015 0.299649 0.0483911
160 1 0.900946 0.35171 0.0514566
161 1 0.999663 0.399085 0.999429
162 1 0.0500586 0.450768 0.00373682
163 1 0.0472567 0.401272 0.0500456
164 1 0.997997 0.450278 0.0506084
165 1 0.0992625 0.402787 0.00477184
166 1 0.147467 0.451474 0.997423
167 1 0.148826 0.400007 0.0531592
168 1 0.0983467 0.453765 0.0494655
169 1 0.197608 0.398681 0.999689
170 1 0.249333 0.453574 0.999897
171 1 0.248847 0.402504 0.0478308
172 1 0.196082 0.450113 0.0473135
173 1 0.29493 0.402226 0.996018
174 1 0.35081 0.452222 0.998248
175 1 0.344098 0.399511 0.0502715
176 1 0.296435 0.453985 0.0530526
177 1 0.399941 0.400583 0.000839522
178 1 0.450078 0.445732 0.99803
179 1 0.44885 0.401012 0.0470932
180 1 0.397157 0.44894 0.0488905
181 1 0.501704 0.402703 0.995667
182 1 0.548492 0.449954 0.999098
183 1 0.548256 0.399521 0.0501056
184 1 0.499949 0.44813 0.0466918
185 1 0.600334 0.402743 0.999031
186 1 0.647675 0.451374 4.26765e-05
187 1 0.646501 0.40251 0.0475286
188 1 0.598562 0.451273 0.0514437
189 1 0.699118 0.40083 0.000602773
190 1 0.750829 0.449848 0.000559255
191 1 0.751612 0.397688 0.0491261
192 1 0.694999 0.4501 0.0517024
193 1 0.801662 0.40146 0.999691
194 1 0.847338 0.450487 0.00342596
195 1 0.849981 0.398616 0.0498231
196 1 0.798104 0.448864 0.0487078
197 1 0.900598 0.403228 0.998628
198 1 0.949891 0.453715 0.00016261
199 1 0.950608 0.401895 0.0476758
200 1 0.899595 0.451083 0.0509297
201 1 0.00146891 0.501108 0.00105646
202 1 0.0477334 0.550928 0.00236851
203 1 0.0475191 0.500011 0.0542426
204 1 0.999844 0.551767 0.0516278
205 1 0.1017 0.504685 0.00109164
206 1 0.14982 0.551277 0.997163
207 1 0.150457 0.497985 0.0489483
208 1 0.0971137 0.557629 0.0497639
209 1 0.20063 0.501358 0.994274
210 1 0.246353 0.5548 0.998655
211 1 0.243808 0.502121 0.0501035
212 1 0.197603 0.552716 0.0463196
213 1 0.297604 0.505417 0.00275823
214 1 0.349607 0.552334 0.997825
215 1 0.351883 0.501977 0.0503131
216 1 0.303479 0.551538 0.0508185
217 1 0.399947 0.498015 0.00284503
218 1 0.44783 0.551288 0.00213804
219 1 0.449968 0.499836 0.0483736
220 1 0.399745 0.548161 0.0493494
221 1 0.502241 0.498991 0.998331
222 1 0.549399 0.549726 0.998562
223 1 0.551238 0.501193 0.0433699
224 1 0.501081 0.550145 0.0467344
225 1 0.599672 0.498615 0.999075
226 1 0.652132 0.552904 0.996876
227 1 0.647931 0.505419 0.0499505
228 1 0.599783 0.551655 0.0504045
229 1 0.699695 0.504492 0.00154442
230 1 0.750223 0.554275 0.0023947
231 1 0.748979 0.501614 0.0482512
232 1 0.701264 0.556035 0.0499356
233 1 0.797931 0.502182 0.00144792
234 1 0.845964 0.553663 0.998193
235 1 0.85186 0.502319 0.0516664
236 1 0.800288 0.553431 0.0527677
237 1 0.893863 0.499204 1.00036
238 1 0.952179 0.550555 0.99842
239 1 0.949925 0.500785 0.0462923
240 1 0.899719 0.553776 0.0472831
241 1 0.997574 0.599593 0.998644
242 1 0.0480513 0.652035 0.996598
243 1 0.0465231 0.602885 0.0525169
244 1 0.997713 0.651102 0.0467669
245 1 0.101723 0.605097 0.996994
246 1 0.150078 0.653487 0.999197
247 1 0.148121 0.601024 0.0502637
248 1 0.100915 0.651031 0.0478926
249 1 0.195516 0.603618 0.00297043
250 1 0.246884 0.650727 0.998597
251 1 0.248303 0.60177 0.0518166
252 1 0.201281 0.651936 0.0506631
253 1 0.297658 0.59978 0.999483
254 1 0.3506 0.649488 0.00164978
255 1 0.350639 0.598954 0.0464896
256 1 0.296631 0.651757 0.0477911
257 1 0.401274 0.59953 0.998709
258 1 0.448189 0.650331 0.00243911
259 1 0.44689 0.59906 0.0527721
260 1 0.40013 0.648311 0.0497733
261 1 0.499488 0.602052 0.997485
262 1 0.550087 0.649256 1.00007
263 1 0.551784 0.599191 0.0489947
264 1 0.500316 0.6478 0.0477969
265 1 0.599 0.601206 0.996431
266 1 0.648781 0.646582 0.999278
267 1 0.651528 0.597542 0.0512193
268 1 0.599779 0.649154 0.0521195
269 1 0.699752 0.602078 0.995991
270 1 0.747962 0.653007 0.996963
271 1 0.752347 0.601645 0.0522438
272 1 0.699862 0.647305 0.0516901
273 1 0.799497 0.603989 0.99719
274 1 0.849602 0.654093 0.997291
275 1 0.84936 0.601127 0.0493692
276 1 0.799414 0.652077 0.0495504
277 1 0.897998 0.604789 0.00224839
278 1 0.949067 0.651959 0.000711056
279 1 0.947836 0.601808 0.0475616
280 1 0.899203 0.651493 0.0482957
281 1 0.999785 0.703742 0.997798
282 1 0.0485853 0.750981 0.999374
283 1 0.0516329 0.702527 0.0489892
284 1 0.000422169 0.751789 0.050619
285 1 0.101037 0.701611 0.999285
286 1 0.152621 0.748747 0.998414
287 1 0.151879 0.700071 0.0486248
288 1 0.101401 0.748785 0.048723
289 1 0.198355 0.698677 0.998581
290 1 0.244619 0.749791 0.0014115
291 1 0.248387 0.701069 0.0516092
292 1 0.197187 0.748881 0.0490548
293 1 0.296157 0.698356 0.00111929
294 1 0.35005 0.746699 0.998055
295 1 0.348489 0.696709 0.0485548
296 1 0.29836 0.750937 0.0447573
297 1 0.399613 0.700604 1.00004
298 1 0.446858 0.749211 0.999249
299 1 0.451268 0.699679 0.0493782
300 1 0.399295 0.749265 0.0484963
301 1 0.501074 0.696735 0.998574
302 1 0.54917 0.746351 0.000533759
303 1 0.547606 0.699294 0.054041
304 1 0.500163 0.747592 0.0501196
305 1 0.600371 0.69662 0.999689
306 1 0.647427 0.747844 0.00296989
307 1 0.651282 0.696018 0.050532
308 1 0.597757 0.748035 0.0518475
309 1 0.695605 0.697661 0.997336
310 1 0.752852 0.751061 0.000327148
311 1 0.748896 0.701259 0.0470075
312 1 0.698063 0.745973 0.047382
313 1 0.799055 0.699479 0.997305
314 1 0.848693 0.749618 0.000347585
315 1 0.848883 0.701242 0.0490742
316 1 0.799714 0.750699 0.0502771
317 1 0.900775 0.703172 0.998485
318 1 0.948798 0.755547 0.00134353
319 1 0.951437 0.699654 0.0481718
320 1 0.899157 0.749809 0.0493151
321 1 8.13028e-05 0.801297 0.00208701
322 1 0.0498574 0.850891 0.00258081
323 1 0.0512838 0.798456 0.0516464
324 1 0.00166644 0.848644 0.0537177
325 1 0.0973044 0.801994 0.998983
326 1 0.147929 0.849648 0.00104492
327 1 0.146271 0.800277 0.0478875
328 1 0.0998252 0.851267 0.0504885
329 1 0.200189 0.801518 0.00154359
330 1 0.249721 0.850684 0.00275366
331 1 0.252049 0.801103 0.0487787
332 1 0.196617 0.849288 0.0520002
333 1 0.299348 0.800776 0.99886
334 1 0.351595 0.851405 0.999582
335 1 0.35092 0.800876 0.04723
336 1 0.302665 0.849551 0.0485224
337 1 0.40181 0.800238 0.00379098
338 1 0.449191 0.849437 0.00298288
339 1 0.454608 0.799504 0.0494737
340 1 0.400293 0.854594 0.0499143
341 1 0.499957 0.795878 0.00194342
342 1 0.550147 0.850019 0.000400008
343 1 0.549735 0.799936 0.053134
344 1 0.499853 0.852522 0.0496602
345 1 0.597616 0.799307 0.0026638
346 1 0.649043 0.849787 0.00151133
347 1 0.646618 0.798012 0.0523394
348 1 0.601717 0.848291 0.0526956
349 1 0.703183 0.796474 0.00250994
350 1 0.749763 0.848135 0.00493001
351 1 0.749569 0.796862 0.0512124
352 1 0.698115 0.846022 0.0520256
353 1 0.800275 0.79915 0.00465377
354 1 0.847165 0.850916 0.00106495
355 1 0.852236 0.799328 0.0499465
356 1 0.799146 0.85198 0.0542566
357 1 0.898611 0.800702 0.00241657
358 1 0.949344 0.850439 0.00521347
359 1 0.951294 0.80138 0.053626
360 1 0.902122 0.848395 0.0495817
361 1 0.00184424 0.898628 0.00383184
362 1 0.0531285 0.950617 0.99828
363 1 0.0504501 0.900248 0.0513165
364 1 0.00279566 0.948068 0.0480939
365 1 0.101581 0.900796 0.00069437
366 1 0.150184 0.950991 0.998503
367 1 0.151831 0.901918 0.0480988
368 1 0.0985132 0.950083 0.0500722
369 1 0.199381 0.898379 0.998327
370 1 0.250463 0.950301 0.997919
371 1 0.250652 0.902919 0.0511574
372 1 0.200714 0.950363 0.0492527
373 1 0.300535 0.898429 0.00101093
374 1 0.349415 0.953603 0.998795
375 1 0.351966 0.901765 0.0487205
376 1 0.302013 0.953535 0.0465212
377 1 0.401166 0.901748 0.997763
378 1 0.451673 0.951954 0.998421
379 1 0.45074 0.90276 0.0514095
380 1 0.401651 0.949538 0.0511831
381 1 0.500346 0.903136 0.999477
382 1 0.553567 0.950513 0.0034437
383 1 0.547538 0.903196 0.052402
384 1 0.501218 0.954065 0.0491819
385 1 0.599456 0.898707 0.0027202
386 1 0.651392 0.952786 0.00287159
387 1 0.650657 0.898202 0.0516305
388 1 0.602494 0.949731 0.0511342
389 1 0.698435 0.901421 0.00108559
390 1 0.753473 0.948654 0.00306157
391 1 0.751433 0.899688 0.0500008
392 1 0.701133 0.951516 0.0499193
393 1 0.794383 0.897768 0.997389
394 1 0.845939 0.951303 0.00335052
395 1 0.847971 0.902734 0.0508679
396 1 0.799373 0.950929 0.0541208
397 1 0.899423 0.900858 0.00170761
398 1 0.948488 0.949385 0.00301846
399 1 0.953 0.900264 0.0520793
400 1 0.899912 0.948921 0.0547452
401 1 0.00236796 0.00194377 0.0966622
402 1 0.0532767 0.0510386 0.0951566
403 1 0.0493595 0.998576 0.15069
404 1 0.998627 0.0508302 0.149385
405 1 0.0998157 0.999169 0.0972983
406 1 0.147056 0.0518349 0.0972846
407 1 0.14686 0.997787 0.148696
408 1 0.097409 0.0501981 0.149647
409 1 0.198219 0.00290562 0.101207
410 1 0.249698 0.052676 0.100105
411 1 0.250333 0.000720255 0.150589
412 1 0.200338 0.0535053 0.148785
413 1 0.306238 0.000752987 0.0976962
414 1 0.350836 0.0529561 0.101322
415 1 0.351549 0.00222856 0.14921
416 1 0.302298 0.0491083 0.146731
417 1 0.397628 1.00016 0.0993286
418 1 0.450447 0.0486549 0.0972131
419 1 0.451817 -8.44543e-05 0.14857
420 1 0.404434 0.050185 0.147462
421 1 0.503475 8.39488e-05 0.100169
422 1 0.549907 0.0486459 0.101754
423 1 0.550428 0.998032 0.152526
424 1 0.500126 0.050989 0.147468
425 1 0.6038 0.996048 0.10024
426 1 0.651013 0.0491569 0.10085
427 1 0.648095 0.997431 0.150917
428 1 0.603517 0.0487478 0.151997
429 1 0.697441 0.00128635 0.0998877
430 1 0.751725 0.0519842 0.099046
431 1 0.75132 0.997638 0.152998
432 1 0.700761 0.0472491 0.14975
433 1 0.799645 0.999884 0.10229
434 1 0.84653 0.0511395 0.100736
435 1 0.848494 0.00111587 0.150975
436 1 0.797467 0.0480337 0.149238
437 1 0.898575 0.00322765 0.102476
438 1 0.949645 0.0497244 0.100492
439 1 0.94935 0.999284 0.151786
440 1 0.896821 0.048007 0.152827
441 1 -0.000455654 0.103043 0.100673
442 1 0.0520248 0.151913 0.100323
443 1 0.0514102 0.101894 0.148338
444 1 0.998647 0.152443 0.151442
445 1 0.100315 0.0998349 0.0939642
446 1 0.149946 0.149192 0.101061
447 1 0.150332 0.100969 0.148141
448 1 0.102193 0.150645 0.149648
449 1 0.19989 0.104707 0.0957891
450 1 0.252752 0.147457 0.0963492
451 1 0.252141 0.0994897 0.152742
452 1 0.206121 0.15056 0.148992
453 1 0.302436 0.0994155 0.0995248
454 1 0.349281 0.149931 0.102197
455 1 0.349743 0.0993434 0.149535
456 1 0.301027 0.149369 0.151578
457 1 0.399469 0.1014 0.0994568
458 1 0.451921 0.149887 0.100495
459 1 0.449511 0.0995988 0.14784
460 1 0.401762 0.149005 0.148144
461 1 0.5011 0.0955457 0.0989248
462 1 0.549684 0.149561 0.101247
463 1 0.548684 0.100594 0.152998
464 1 0.503347 0.148654 0.151201
465 1 0.600642 0.0973756 0.101827
466 1 0.653676 0.150818 0.0995728
467 1 0.648968 0.100117 0.148953
468 1 0.602177 0.153401 0.148239
469 1 0.701322 0.0996128 0.099694
470 1 0.752285 0.148035 0.104258
471 1 0.75045 0.0999561 0.154147
472 1 0.70212 0.152024 0.149576
473 1 0.799348 0.100254 0.102366
474 1 0.846553 0.150757 0.0987988
475 1 0.849639 0.0996603 0.150757
476 1 0.801087 0.148692 0.153141
477 1 0.895342 0.101189 0.0998049
478 1 0.945999 0.151039 0.100236
479 1 0.946431 0.0982499 0.148543
480 1 0.898327 0.149883 0.149948
481 1 0.999715 0.203673 0.0967906
482 1 0.0489933 0.251468 0.100898
483 1 0.0481037 0.201189 0.148671
484 1 0.99855 0.249001 0.148148
485 1 0.102989 0.202387 0.098267
486 1 0.153068 0.251348 0.0992981
487 1 0.149672 0.201104 0.150237
488 1 0.103255 0.25026 0.149512
489 1 0.199434 0.199112 0.100834
490 1 0.252703 0.251045 0.100361
491 1 0.254752 0.201712 0.149701
492 1 0.202 0.250927 0.149762
493 1 0.303194 0.20179 0.101638
494 1 0.349452 0.251473 0.0971257
495 1 0.351087 0.20023 0.148411
496 1 0.301906 0.249596 0.152371
497 1 0.400329 0.20069 0.101914
498 1 0.452098 0.251697 0.100811
499 1 0.450856 0.198808 0.149411
500 1 0.400101 0.249156 0.151929
501 1 0.503108 0.199848 0.101602
502 1 0.550054 0.25183 0.0964178
503 1 0.550014 0.201385 0.146601
504 1 0.502231 0.251827 0.150087
505 1 0.600797 0.20104 0.0987775
506 1 0.651447 0.253488 0.0999723
507 1 0.652076 0.202565 0.149855
508 1 0.602507 0.253945 0.153068
509 1 0.700312 0.202047 0.0984681
510 1 0.752732 0.250124 0.0973075
511 1 0.756847 0.201374 0.15091
512 1 0.701178 0.249607 0.146321
513 1 0.803713 0.200423 0.102681
514 1 0.849564 0.250643 0.100722
515 1 0.850874 0.19669 0.153732
516 1 0.803262 0.252315 0.153461
517 1 0.893417 0.199222 0.100171
518 1 0.950995 0.252763 0.0974987
519 1 0.945339 0.199229 0.146306
520 1 0.899986 0.251358 0.149064
521 1 0.999459 0.29917 0.101178
522 1 0.0493522 0.352326 0.101085
523 1 0.0480858 0.300848 0.151513
524 1 0.997395 0.348212 0.152732
525 1 0.0997866 0.298903 0.0989714
526 1 0.150006 0.348282 0.103183
527 1 0.149991 0.299704 0.151168
528 1 0.0992503 0.351336 0.153292
529 1 0.199595 0.302364 0.0998652
530 1 0.249146 0.349099 0.0971873
531 1 0.249041 0.299931 0.147882
532 1 0.197955 0.35116 0.148446
533 1 0.29902 0.299836 0.0977228
534 1 0.346658 0.348908 0.0990585
535 1 0.349772 0.295978 0.150685
536 1 0.301978 0.348375 0.148604
537 1 0.399576 0.299238 0.0994759
538 1 0.448905 0.349812 0.0986503
539 1 0.449946 0.299345 0.151561
540 1 0.397116 0.347858 0.149202
541 1 0.499881 0.301376 0.0996999
542 1 0.549398 0.346116 0.100134
543 1 0.548864 0.300063 0.151608
544 1 0.497621 0.348966 0.150696
545 1 0.599454 0.300353 0.100216
546 1 0.649782 0.350936 0.103147
547 1 0.654136 0.302879 0.150969
548 1 0.600931 0.345116 0.15035
549 1 0.701316 0.301384 0.101109
550 1 0.747959 0.350493 0.102624
551 1 0.749844 0.302516 0.150687
552 1 0.700322 0.351929 0.155037
553 1 0.801675 0.301234 0.102536
554 1 0.851053 0.349347 0.0986249
555 1 0.850936 0.302889 0.148193
556 1 0.801204 0.35067 0.149749
557 1 0.900964 0.299056 0.0997042
558 1 0.947458 0.351418 0.100331
559 1 0.947942 0.298748 0.149222
560 1 0.900589 0.352846 0.152553
561 1 0.996945 0.402191 0.09989
562 1 0.0459205 0.448697 0.102583
563 1 0.0452965 0.401672 0.151494
564 1 0.99859 0.448358 0.150704
565 1 0.0956949 0.400273 0.0981712
566 1 0.14752 0.452605 0.0987343
567 1 0.144958 0.400797 0.147112
568 1 0.0977422 0.452687 0.148006
569 1 0.200938 0.401643 0.102647
570 1 0.24607 0.451981 0.0966125
571 1 0.248152 0.403352 0.15341
572 1 0.202527 0.453313 0.14985
573 1 0.292718 0.4028 0.101323
574 1 0.349649 0.451942 0.100251
575 1 0.347761 0.399494 0.151864
576 1 0.298723 0.452953 0.151198
577 1 0.39842 0.396172 0.099314
578 1 0.451479 0.451673 0.0967469
579 1 0.447252 0.39701 0.14909
580 1 0.40071 0.450807 0.149702
581 1 0.497145 0.398249 0.100297
582 1 0.550273 0.451415 0.101476
583 1 0.549015 0.397815 0.147999
584 1 0.501263 0.452376 0.147471
585 1 0.596926 0.399522 0.100413
586 1 0.647892 0.454057 0.0992948
587 1 0.650711 0.402646 0.149501
588 1 0.599997 0.449141 0.148324
589 1 0.70034 0.400504 0.101317
590 1 0.751764 0.447545 0.10027
591 1 0.751448 0.398655 0.150371
592 1 0.698452 0.451553 0.14456
593 1 0.801622 0.399603 0.099085
594 1 0.850062 0.451 0.100916
595 1 0.850801 0.40044 0.151124
596 1 0.799944 0.448673 0.149618
597 1 0.901766 0.401622 0.102169
598 1 0.949466 0.448336 0.100984
599 1 0.948454 0.399893 0.151318
600 1 0.900653 0.450793 0.150169
601 1 0.994251 0.499071 0.098
602 1 0.047163 0.549927 0.101465
603 1 0.0476442 0.502448 0.149694
604 1 0.000345763 0.548541 0.151728
605 1 0.098768 0.504609 0.0971369
606 1 0.150885 0.553662 0.0957037
607 1 0.145669 0.502787 0.14843
608 1 0.0986455 0.550522 0.146151
609 1 0.199009 0.503302 0.101158
610 1 0.249747 0.550112 0.0992849
611 1 0.246926 0.500969 0.156069
612 1 0.196556 0.549986 0.150874
613 1 0.299935 0.501687 0.101046
614 1 0.35068 0.550069 0.102472
615 1 0.352382 0.501023 0.149845
616 1 0.299176 0.550074 0.150285
617 1 0.398244 0.499157 0.0991529
618 1 0.447096 0.548681 0.100283
619 1 0.451205 0.500848 0.149048
620 1 0.40046 0.550254 0.153468
621 1 0.502416 0.502073 0.0954746
622 1 0.549163 0.55088 0.0983099
623 1 0.550271 0.502636 0.148702
624 1 0.498431 0.550549 0.151675
625 1 0.599452 0.502265 0.0997232
626 1 0.649692 0.55263 0.10161
627 1 0.650014 0.500346 0.148731
628 1 0.599739 0.551704 0.151032
629 1 0.70429 0.502174 0.100414
630 1 0.7482 0.553016 0.101142
631 1 0.75039 0.496592 0.146721
632 1 0.702212 0.549362 0.153638
633 1 0.799317 0.501981 0.0963303
634 1 0.852219 0.548308 0.102411
635 1 0.849388 0.500134 0.149357
636 1 0.798604 0.549707 0.150607
637 1 0.902568 0.500796 0.100405
638 1 0.951214 0.550816 0.100877
639 1 0.950961 0.497059 0.151089
640 1 0.902628 0.550994 0.151714
641 1 0.000410445 0.601327 0.100346
642 1 0.0496679 0.652545 0.0965805
643 1 0.0509021 0.601993 0.148311
644 1 0.000216624 0.651068 0.152179
645 1 0.101799 0.602857 0.0997802
646 1 0.151407 0.652298 0.0987041
647 1 0.150243 0.598649 0.147689
648 1 0.101945 0.652528 0.146759
649 1 0.200877 0.599659 0.100323
650 1 0.246423 0.653342 0.102388
651 1 0.249227 0.600166 0.150437
652 1 0.199379 0.653963 0.15396
653 1 0.302445 0.602845 0.0985874
654 1 0.348631 0.651005 0.09916
655 1 0.348462 0.601706 0.149804
656 1 0.298891 0.650488 0.150537
657 1 0.397427 0.600767 0.101631
658 1 0.451133 0.650611 0.0968926
659 1 0.447543 0.601611 0.149662
660 1 0.399797 0.650869 0.147632
661 1 0.501762 0.601075 0.0985516
662 1 0.547706 0.650222 0.0992192
663 1 0.548049 0.599854 0.148069
664 1 0.498347 0.649362 0.146722
665 1 0.599658 0.598128 0.100813
666 1 0.648288 0.64965 0.103473
667 1 0.652873 0.600221 0.153195
668 1 0.594987 0.65002 0.150542
669 1 0.70148 0.599246 0.104382
670 1 0.751418 0.6493 0.104391
671 1 0.748942 0.598944 0.153664
672 1 0.700098 0.650988 0.152982
673 1 0.803498 0.600814 0.100094
674 1 0.850583 0.65088 0.103018
675 1 0.854131 0.603089 0.149368
676 1 0.800332 0.649885 0.150528
677 1 0.904301 0.601369 0.100882
678 1 0.952796 0.653033 0.100209
679 1 0.953667 0.602082 0.148559
680 1 0.903521 0.651521 0.152234
681 1 0.00361701 0.700042 0.098651
682 1 0.0509137 0.753443 0.102072
683 1 0.0535894 0.699716 0.151147
684 1 0.00234088 0.751062 0.148944
685 1 0.102482 0.700632 0.0963496
686 1 0.148898 0.751548 0.0997699
687 1 0.146788 0.701644 0.151317
688 1 0.0998435 0.750757 0.149071
689 1 0.200842 0.70408 0.101383
690 1 0.25023 0.751078 0.0976747
691 1 0.248102 0.699843 0.153034
692 1 0.195467 0.748268 0.151712
693 1 0.298957 0.70054 0.102898
694 1 0.349196 0.750994 0.0973845
695 1 0.348859 0.702733 0.14725
696 1 0.297798 0.749963 0.148914
697 1 0.402107 0.700092 0.0989281
698 1 0.451007 0.747487 0.105023
699 1 0.448465 0.699464 0.148696
700 1 0.39492 0.749239 0.148535
701 1 0.49826 0.697616 0.101038
702 1 0.55194 0.7463 0.102284
703 1 0.548024 0.700958 0.151651
704 1 0.50073 0.74693 0.151459
705 1 0.597915 0.697575 0.101656
706 1 0.648315 0.744162 0.0995687
707 1 0.646858 0.700049 0.149498
708 1 0.598021 0.750264 0.152268
709 1 0.699394 0.69665 0.102311
710 1 0.747985 0.744839 0.097978
711 1 0.747872 0.699187 0.153191
712 1 0.698183 0.746734 0.149298
713 1 0.802892 0.70295 0.103353
714 1 0.8504 0.748665 0.0960166
715 1 0.852283 0.706532 0.152759
716 1 0.798627 0.750379 0.146101
717 1 0.902905 0.700022 0.100487
718 1 0.948753 0.751505 0.102871
719 1 0.953143 0.700681 0.152145
720 1 0.903507 0.747829 0.1518
721 1 0.998677 0.799219 0.102422
722 1 0.0514401 0.84806 0.101618
723 1 0.0531422 0.802916 0.150675
724 1 0.00371909 0.848453 0.147587
725 1 0.10257 0.802889 0.103258
726 1 0.150152 0.852627 0.0998675
727 1 0.149897 0.804383 0.15416
728 1 0.10074 0.854531 0.150755
729 1 0.196057 0.799592 0.0994167
730 1 0.248435 0.850819 0.0992632
731 1 0.250754 0.799267 0.150082
732 1 0.199863 0.850124 0.143708
733 1 0.300252 0.800821 0.0985107
734 1 0.348316 0.850917 0.0991707
735 1 0.347826 0.800017 0.149453
736 1 0.301026 0.849392 0.148905
737 1 0.399479 0.802239 0.0949012
738 1 0.452917 0.85105 0.0959546
739 1 0.449862 0.801354 0.14781
740 1 0.398504 0.853045 0.148784
741 1 0.499418 0.794734 0.100026
742 1 0.549453 0.853883 0.0991909
743 1 0.546701 0.800025 0.148254
744 1 0.499739 0.852323 0.150216
745 1 0.601764 0.798766 0.100188
746 1 0.649738 0.849754 0.100152
747 1 0.649109 0.79726 0.14726
748 1 0.600182 0.849372 0.148444
749 1 0.69905 0.794947 0.0995399
750 1 0.750534 0.846997 0.100085
751 1 0.746228 0.797258 0.147598
752 1 0.699214 0.847012 0.148549
753 1 0.801404 0.800962 0.0980744
754 1 0.852399 0.851393 0.101491
755 1 0.846183 0.799279 0.147788
756 1 0.800826 0.849166 0.150906
757 1 0.903158 0.801382 0.100242
758 1 0.950594 0.848211 0.101572
759 1 0.948114 0.800376 0.149699
760 1 0.898366 0.847386 0.153034
761 1 0.999544 0.899204 0.0989595
762 1 0.0493506 0.949734 0.0983284
763 1 0.0529679 0.900258 0.146172
764 1 0.00251492 0.947697 0.149449
765 1 0.103249 0.901294 0.0982167
766 1 0.151634 0.95306 0.0949655
767 1 0.149627 0.90457 0.145917
768 1 0.100414 0.948555 0.148432
769 1 0.200469 0.903501 0.0971991
770 1 0.249998 0.952135 0.098545
771 1 0.250855 0.903204 0.14732
772 1 0.197951 0.952054 0.15171
773 1 0.301594 0.903413 0.0975258
774 1 0.352268 0.952043 0.0984299
775 1 0.34831 0.901318 0.148466
776 1 0.301429 0.954001 0.146536
777 1 0.400281 0.899606 0.0977348
778 1 0.448574 0.952467 0.100216
779 1 0.449377 0.901154 0.14841
780 1 0.398581 0.950502 0.148881
781 1 0.498893 0.905537 0.0969816
782 1 0.550811 0.953325 0.101258
783 1 0.550933 0.897692 0.150668
784 1 0.501139 0.950016 0.150805
785 1 0.601715 0.899597 0.0980028
786 1 0.651311 0.947828 0.100067
787 1 0.651915 0.89972 0.148258
788 1 0.601744 0.946851 0.150526
789 1 0.702462 0.896732 0.103149
790 1 0.747993 0.953374 0.101447
791 1 0.747184 0.900446 0.150856
792 1 0.699019 0.948994 0.148691
793 1 0.798332 0.901377 0.101693
794 1 0.850144 0.949689 0.102319
795 1 0.849477 0.896784 0.149118
796 1 0.799356 0.951705 0.15164
797 1 0.900278 0.897573 0.0987963
798 1 0.950434 0.948795 0.0994834
799 1 0.950118 0.900589 0.148771
800 1 0.901275 0.949152 0.150199
801 1 0.996856 0.00347679 0.199163
802 1 0.0518693 0.0508155 0.203321
803 1 0.0474892 0.000777156 0.251857
804 1 0.997178 0.050382 0.2524
805 1 0.0980536 0.998514 0.200079
806 1 0.146421 0.0471332 0.200374
807 1 0.148656 0.99842 0.249691
808 1 0.101058 0.0495357 0.250484
809 1 0.20166 0.00279377 0.200504
810 1 0.251422 0.0509223 0.199995
811 1 0.250928 0.996874 0.246654
812 1 0.196654 0.0509272 0.251098
813 1 0.299279 0.999756 0.199993
814 1 0.350382 0.0503445 0.200886
815 1 0.348246 0.000903771 0.248841
816 1 0.298053 0.0485852 0.248491
817 1 0.39944 0.999633 0.201394
818 1 0.447618 0.0471263 0.202739
819 1 0.448695 1.00003 0.24998
820 1 0.399577 0.047359 0.250037
821 1 0.50015 1.00003 0.200773
822 1 0.548134 0.0452252 0.201071
823 1 0.548881 0.999574 0.253074
824 1 0.50117 0.0467153 0.252106
825 1 0.597656 0.00142924 0.204829
826 1 0.64796 0.0490217 0.201104
827 1 0.650482 0.997565 0.252552
828 1 0.601607 0.0500951 0.250654
829 1 0.696293 0.997394 0.197039
830 1 0.751213 0.048644 0.200619
831 1 0.747262 0.998576 0.251408
832 1 0.698779 0.0508451 0.250955
833 1 0.798477 0.998375 0.202067
834 1 0.850314 0.0466588 0.199852
835 1 0.851912 0.997971 0.248211
836 1 0.800289 0.0465721 0.247182
837 1 0.900509 0.996519 0.199881
838 1 0.948396 0.0498746 0.200856
839 1 0.94976 0.00244946 0.251621
840 1 0.899669 0.0500619 0.246236
841 1 0.99525 0.0978636 0.203109
842 1 0.049506 0.147915 0.198831
843 1 0.0473231 0.0983666 0.248634
844 1 0.00135303 0.149075 0.254113
845 1 0.103551 0.103335 0.198555
846 1 0.152384 0.152568 0.199637
847 1 0.150906 0.0998864 0.247687
848 1 0.097314 0.147986 0.250139
849 1 0.20131 0.102084 0.198844
850 1 0.251207 0.150183 0.202318
851 1 0.251373 0.100896 0.250351
852 1 0.200193 0.147528 0.251204
853 1 0.301438 0.101856 0.200573
854 1 0.34872 0.152943 0.201518
855 1 0.350233 0.0953919 0.249829
856 1 0.300487 0.150016 0.251498
857 1 0.399794 0.100328 0.198634
858 1 0.449565 0.147653 0.202848
859 1 0.44827 0.0998934 0.250234
860 1 0.399962 0.150983 0.248252
861 1 0.498553 0.0962081 0.20002
862 1 0.549089 0.150399 0.198428
863 1 0.551616 0.0987945 0.2508
864 1 0.499745 0.147311 0.247829
865 1 0.598835 0.0991219 0.197378
866 1 0.650516 0.150195 0.19715
867 1 0.649428 0.100019 0.248435
868 1 0.602487 0.149773 0.249435
869 1 0.700848 0.101634 0.197667
870 1 0.752763 0.147758 0.203524
871 1 0.75201 0.0969893 0.250457
872 1 0.702904 0.151341 0.248746
873 1 0.799835 0.0956132 0.201484
874 1 0.851923 0.146315 0.20098
875 1 0.848617 0.0958627 0.250014
876 1 0.802985 0.146059 0.250105
877 1 0.898973 0.0995828 0.195917
878 1 0.947039 0.146273 0.196668
879 1 0.946867 0.100416 0.252695
880 1 0.899871 0.151566 0.250842
881 1 0.999348 0.19823 0.201768
882 1 0.0501564 0.250409 0.200452
883 1 0.0475431 0.199373 0.253241
884 1 1.00003 0.2504 0.251285
885 1 0.101479 0.202926 0.20147
886 1 0.150622 0.248802 0.202621
887 1 0.151646 0.198994 0.247551
888 1 0.0987866 0.248514 0.249445
889 1 0.202616 0.200609 0.198086
890 1 0.248585 0.248689 0.200399