ITEM: TIMESTEP
69300
ITEM: NUMBER OF ATOMS
4000
ITEM: BOX BOUNDS pp pp pp
0.0000000000000000e+00 1.6795961913825074e+01
0.0000000000000000e+00 1.6795961913825074e+01
0.0000000000000000e+00 1.6795961913825074e+01
ITEM: ATOMS id type xs ys zs
1 1 0.761438 0.573818 0.555782
2 1 0.114663 0.820432 0.131481
3 1 0.796867 0.639257 0.360345
4 1 0.644456 0.633486 0.753132
5 1 0.673639 0.449132 0.295589
6 1 0.890365 0.663652 0.600869
7 1 0.631784 0.195533 0.881448
8 1 0.378047 0.383442 0.0828475
9 1 0.276755 0.264215 0.379851
10 1 0.0430838 0.10841 0.379927
11 1 0.368493 0.772803 0.0760648
12 1 0.335076 0.76049 0.146363
13 1 0.0183455 0.169657 0.387562
14 1 0.174839 0.510986 0.0395261
15 1 0.415458 0.802279 0.0959021
16 1 0.50877 0.910865 0.421831
17 1 0.0883577 0.361427 0.685012
18 1 0.437727 0.922749 0.11663
19 1 0.525278 0.724994 0.597224
20 1 0.683827 0.340493 0.0430629
21 1 0.197659 0.852141 0.715134
22 1 0.367768 0.415771 0.295444
23 1 0.644303 0.572795 0.326593
24 1 0.632011 0.101902 0.921276
25 1 0.936631 0.0247758 0.2162
26 1 0.786191 0.377967 0.342283
27 1 0.179513 0.878513 0.237163
28 1 0.41123 0.508681 0.921132
29 1 0.285174 0.520509 0.193156
30 1 0.187294 0.921351 0.859258
31 1 0.476828 0.802821 0.0655903
32 1 0.601275 0.992865 0.285149
33 1 0.896382 0.926883 0.396464
34 1 0.605842 0.979372 0.847836
35 1 0.962856 0.978766 0.426062
36 1 0.355213 0.2615 0.427438
37 1 0.361029 0.903235 0.0209197
38 1 0.638585 0.842163 0.992384
39 1 0.331396 0.0544971 0.165826
40 1 0.0338068 0.207616 0.46142
41 1 0.575837 0.0111361 0.446921
42 1 0.803789 0.900387 0.691834
43 1 0.920884 0.489223 0.586562
44 1 0.913068 0.402801 0.194546
45 1 0.652924 0.97138 0.905324
46 1 0.930481 0.411469 0.420805
47 1 0.408097 0.496665 0.0319031
48 1 0.0419084 0.391344 0.38018
49 1 0.161607 0.207266 0.700223
50 1 0.724067 0.661213 0.335978
51 1 0.560331 0.422659 0.290999
52 1 0.580789 0.262771 0.403792
53 1 0.261122 0.0749251 0.333674
54 1 0.0210902 0.686132 0.865564
55 1 0.130906 0.25018 0.418486
56 1 0.159392 0.428545 0.458307
57 1 0.249879 0.342265 0.577767
58 1 0.490331 0.486571 0.280187
59 1 0.552875 0.491162 0.542538
60 1 0.52485 0.282648 0.384193
61 1 0.921043 0.743473 0.904437
62 1 0.914188 0.541842 0.381542
63 1 0.714792 0.0207329 0.25154
64 1 0.390488 0.272842 0.201852
65 1 0.478084 0.420889 0.932896
66 1 0.512805 0.763445 0.0938378
67 1 0.0963262 0.495451 0.778933
68 1 0.917692 0.591425 0.231199
69 1 0.232109 0.742091 0.247339
70 1 0.421515 0.0555891 0.946509
71 1 0.265328 0.169104 0.226258
72 1 0.249451 0.814763 0.323007
73 1 0.441392 0.211095 0.864112
74 1 0.498453 0.667841 0.289554
75 1 0.594167 0.455187 0.928202
76 1 0.642348 0.499231 0.179112
77 1 0.324226 0.137798 0.264901
78 1 0.873614 0.70099 0.728516
79 1 0.0193382 0.910556 0.326793
80 1 0.0612432 0.0633216 0.208518
81 1 0.820169 0.111011 0.848312
82 1 0.0733737 0.535317 0.629015
83 1 0.156719 0.933402 0.67281
84 1 0.418834 0.389688 0.976705
85 1 0.792133 0.277052 0.558822
86 1 0.751853 0.0313584 0.122911
87 1 0.857759 0.468907 0.0458815
88 1 0.105827 0.959008 0.75968
89 1 0.275916 0.621397 0.334835
90 1 0.859307 0.0321843 0.41338
91 1 0.996928 0.181616 0.664089
92 1 0.131512 0.612104 0.117112
93 1 0.446673 0.845933 0.0133791
94 1 0.203885 0.944495 0.60227
95 1 0.328169 0.902174 0.950168
96 1 0.622251 0.40644 0.112916
97 1 0.184157 0.238263 0.33438
98 1 0.292233 0.0174468 0.379548
99 1 0.104526 0.946572 0.509799
100 1 0.884009 0.0635289 0.485705
101 1 0.633877 0.00572614 0.472129
102 1 0.368945 0.000228647 0.3652
103 1 0.878347 0.688227 0.189057
104 1 0.168532 0.958415 0.974024
105 1 0.781324 0.423199 0.945493
106 1 0.164594 0.18436 0.637439
107 1 0.645885 0.764875 0.767824
108 1 0.801366 0.0584564 0.267549
109 1 0.555519 0.892758 0.54744
110 1 0.606186 0.853259 0.447986
111 1 0.372191 0.0332607 0.0986863
112 1 0.703988 0.992084 0.443597
113 1 0.400048 0.332403 0.272414
114 1 0.679821 0.360167 0.920927
115 1 0.555622 0.0921604 0.252062
116 1 0.197294 0.506713 0.70985
117 1 0.431228 0.386677 0.0347799
118 1 0.328808 0.167606 0.655614
119 1 0.00193198 0.039813 0.207736
120 1 0.503991 0.662136 0.0285749
121 1 0.800134 0.780829 0.140617
122 1 0.133061 0.607526 0.175065
123 1 0.931018 0.63736 0.920517
124 1 0.416841 0.482751 0.710258
125 1 0.463684 0.53306 0.431699
126 1 0.166525 0.497061 0.343749
127 1 0.110643 0.753468 0.808175
128 1 0.87165 0.766518 0.829432
129 1 0.918071 0.43303 0.74282
130 1 0.706455 0.570474 0.419954
131 1 0.100249 0.652768 0.159086
132 1 0.342895 0.704738 0.213427
133 1 0.267338 0.837423 0.00620533
134 1 0.847069 0.405846 0.861297
135 1 0.56169 0.378908 0.162819
136 1 0.400227 0.951541 0.956472
137 1 0.445953 0.0557374 0.248328
138 1 0.247152 0.745638 0.453466
139 1 0.807183 0.578082 0.108232
140 1 0.648517 0.967623 0.601623
141 1 0.953276 0.404998 0.684197
142 1 0.684196 0.133474 0.221151
143 1 0.225556 0.203787 0.669138
144 1 0.518583 0.500677 0.487303
145 1 0.935966 0.373163 0.311167
146 1 0.716718 0.845135 0.162266
147 1 0.930396 0.232531 0.984477
148 1 0.259656 0.348645 0.121001
149 1 0.748226 0.50562 0.1083
150 1 0.732255 0.533432 0.316942
151 1 0.778427 0.875753 0.264078
152 1 0.605241 0.825557 0.946183
153 1 0.557627 0.417428 0.690917
154 1 0.218603 0.290064 0.0652068
155 1 0.611859 0.0758003 0.271548
156 1 0.978491 0.0117985 0.561573
157 1 0.669037 0.0576914 0.062156
158 1 0.995179 0.292096 0.638523
159 1 0.448481 0.929243 0.177443
160 1 0.225339 0.0910074 0.0678671
161 1 0.884043 0.417384 0.244389
162 1 0.837073 0.519582 0.00650473
163 1 0.119158 0.109629 0.159737
164 1 0.808785 0.721666 0.657779
165 1 0.894641 0.582016 0.11539
166 1 0.620816 0.0368577 0.161826
167 1 0.901394 0.0483014 0.259332
168 1 0.0219588 0.686156 0.636722
169 1 0.00746822 0.700798 0.0258504
170 1 0.066268 0.422199 0.676167
171 1 0.316086 0.360559 0.261474
172 1 0.133297 0.479154 0.442603
173 1 0.969844 0.704674 0.89568
174 1 0.928439 0.518899 0.139899
175 1 0.32226 0.411966 0.237477
176 1 0.0327816 0.841185 0.620986
177 1 0.883369 0.463228 0.915159
178 1 0.723926 0.867957 0.281691
179 1 0.366432 0.613289 0.873818
180 1 0.872123 0.738546 0.266876
181 1 0.0574739 0.607934 0.336722
182 1 0.541601 0.441809 0.643428
183 1 0.122309 0.23143 0.36359
184 1 0.668026 0.642037 0.0195513
185 1 0.0909972 0.85771 0.371236
186 1 0.974056 0.303609 0.460962
187 1 0.40651 0.442744 0.00117348
188 1 0.132051 0.411941 0.858378
189 1 0.768886 0.684773 0.241702
190 1 0.365303 0.608586 0.935969
191 1 0.483531 0.165785 0.734921
192 1 0.915841 0.707909 0.294282
193 1 0.620381 0.950175 0.974193
194 1 0.915486 0.846124 0.962847
195 1 0.421107 0.228945 0.181807
196 1 0.694493 0.635494 0.241066
197 1 0.554207 0.227254 0.328798
198 1 0.288323 0.618363 0.617742
199 1 0.335716 0.788396 0.791023
200 1 0.813288 0.867013 0.440687
201 1 0.221174 0.336291 0.869403
202 1 0.907371 0.85142 0.0586672
203 1 0.163076 0.618589 0.0304279
204 1 0.937975 0.301851 0.954262
205 1 0.510276 0.364624 0.653607
206 1 0.523263 0.510828 0.0632026
207 1 0.00308406 0.00205632 0.156635
208 1 0.278362 0.658226 0.925051
209 1 0.00334554 0.473242 0.37469
210 1 0.479441 0.786115 0.260462
211 1 0.034919 0.368877 0.653263
212 1 0.89954 0.0179252 0.610589
213 1 0.502657 0.865374 0.952151
214 1 0.997072 0.898741 0.75727
215 1 0.678883 0.102 0.0108092
216 1 0.945373 0.8088 0.246283
217 1 0.138335 0.331291 0.321862
218 1 0.471645 0.165562 0.157082
219 1 0.4291 0.711832 0.290834
220 1 0.451644 0.0134963 0.599688
221 1 0.363958 0.854919 0.79435
222 1 0.18187 0.665987 0.631279
223 1 0.725757 0.586259 0.281198
224 1 0.430516 0.761726 0.870286
225 1 0.482022 0.974497 0.0896932
226 1 0.207691 0.0234982 0.0349489
227 1 0.489247 0.0313774 0.173596
228 1 0.247776 0.40812 0.988975
229 1 0.294323 0.220921 0.83774
230 1 0.235133 0.00752413 0.373484
231 1 0.739792 0.432836 0.110473
232 1 0.853043 0.0797088 0.301768
233 1 0.0576426 0.577787 0.0272546
234 1 0.976518 0.0412838 0.436423
235 1 0.850892 0.0964509 0.0471227
236 1 0.737155 0.280556 0.217977
237 1 0.672483 0.342161 0.611942
238 1 0.457799 0.813202 0.963106
239 1 0.527696 0.446443 0.972538
240 1 0.774971 0.488465 0.0408909
241 1 0.743587 0.767544 0.975907
242 1 0.465759 0.648981 0.805526
243 1 0.769763 0.140452 0.652963
244 1 0.297483 0.854458 0.313891
245 1 0.92287 0.84337 0.846089
246 1 0.11257 0.771301 0.875551
247 1 0.196215 0.954199 0.0926422
248 1 0.584764 0.643918 0.00913317
249 1 0.309777 0.0874217 0.205898
250 1 0.871871 0.747864 0.0556416
251 1 0.357262 0.715289 0.75457
252 1 0.962615 0.912799 0.29955
253 1 0.425846 0.944242 0.570007
254 1 0.222501 0.478634 0.807993
255 1 0.300739 0.19847 0.328545
256 1 0.251837 0.354705 0.289401
257 1 0.270529 0.551588 0.247479
258 1 0.546303 0.530124 0.67055
259 1 0.380148 0.262412 0.957772
260 1 0.26798 0.54295 0.355106
261 1 0.241912 0.478588 0.226583
262 1 0.564652 0.505629 0.106507
263 1 0.300106 0.580711 0.377704
264 1 0.277829 0.574416 0.969651
265 1 0.515954 0.518575 0.130802
266 1 0.331275 0.566274 0.604485
267 1 0.0939661 0.340547 0.980879
268 1 0.729456 0.0465092 0.341752
269 1 0.196841 0.0961808 0.162621
270 1 0.398654 0.75216 0.145926
271 1 0.514793 0.0700845 0.529905
272 1 0.354732 0.190453 0.0670809
273 1 0.49789 0.090905 0.764277
274 1 0.7495 0.329527 0.91934
275 1 0.344504 0.988847 0.447888
276 1 0.0346635 0.789962 0.440856
277 1 0.785189 0.357859 0.159717
278 1 0.675723 0.579712 0.761423
279 1 0.488569 0.203978 0.434588
280 1 0.217428 0.980357 0.000122052
281 1 0.764049 0.995784 0.556083
282 1 0.199919 0.707797 0.840471
283 1 0.507414 0.87888 0.861708
284 1 0.470415 0.727001 0.530387
285 1 0.612027 0.653108 0.580171
286 1 0.941137 0.76868 0.820263
287 1 0.203414 0.17002 0.418043
288 1 0.171699 0.502594 0.652274
289 1 0.703633 0.742179 0.324743
290 1 0.747965 0.760813 0.113487
291 1 0.162512 0.849736 0.461646
292 1 0.62043 0.121126 0.00386014
293 1 0.27789 0.776858 0.36242
294 1 0.783495 0.649674 0.974154
295 1 0.260976 0.410759 0.240482
296 1 0.00459467 0.567469 0.797317
297 1 0.816233 0.778282 0.875183
298 1 0.327193 0.964301 0.347714
299 1 0.170631 0.0572052 0.251926
300 1 0.876412 0.61337 0.467098
301 1 0.220384 0.284908 0.549359
302 1 0.500613 0.410212 0.127845
303 1 0.337454 0.907871 0.336426
304 1 0.953223 0.437965 0.789042
305 1 0.785964 0.737288 0.908253
306 1 0.59799 0.518076 0.730268
307 1 0.357717 0.528636 0.104396
308 1 0.447454 0.895141 0.663878
309 1 0.540509 0.386563 0.602059
310 1 0.619644 0.0701102 0.771372
311 1 0.981839 0.658938 0.146619
312 1 0.316644 0.202497 0.38334
313 1 0.328625 0.541843 0.982814
314 1 0.950499 0.712436 0.556877
315 1 0.428799 0.983176 0.159942
316 1 0.715235 0.112744 0.690448
317 1 0.700784 0.769178 0.733667
318 1 0.472866 0.626762 0.993037
319 1 0.351691 0.529991 0.769028
320 1 0.677161 0.578712 0.023654
321 1 0.144876 0.986334 0.50753
322 1 0.859905 0.817806 0.376896
323 1 0.371385 0.383494 0.525118
324 1 0.104234 0.788613 0.394435
325 1 0.116155 0.829394 0.325304
326 1 0.365002 0.578729 0.395397
327 1 0.306672 0.839647 0.50846
328 1 0.920614 0.739763 0.350005
329 1 0.421616 0.604565 0.326455
330 1 0.898045 0.336731 0.586272
331 1 0.219662 0.476149 0.350484
332 1 0.4497 0.124384 0.767943
333 1 0.578533 0.616312 0.22347
334 1 0.982402 0.80994 0.35285
335 1 0.791033 0.197019 0.488314
336 1 0.574567 0.795645 0.105066
337 1 0.742144 0.632978 0.118277
338 1 0.393793 0.847659 0.0513807
339 1 0.308159 0.422373 0.872229
340 1 0.916727 0.939558 0.499896
341 1 0.262808 0.689625 0.364019
342 1 0.554373 0.0330249 0.171285
343 1 0.785904 0.526191 0.463058
344 1 0.471233 0.0942192 0.135353
345 1 0.0376282 0.966604 0.0431952
346 1 0.361204 0.772777 0.574879
347 1 0.390834 0.197755 0.943756
348 1 0.752983 0.152992 0.00738856
349 1 0.477891 0.896782 0.339907
350 1 0.911935 0.747448 0.18024
351 1 0.554231 0.973766 0.388501
352 1 0.699636 0.877667 0.75139
353 1 0.17015 0.608818 0.654357
354 1 0.547378 0.781352 0.0326392
355 1 0.976508 0.83267 0.984047
356 1 0.855163 0.488467 0.713459
357 1 0.508819 0.210534 0.366974
358 1 0.480588 0.384751 0.302325
359 1 0.0620862 0.387753 0.964356
360 1 0.0535063 0.269437 0.369615
361 1 0.147689 0.300149 0.0374527
362 1 0.808716 0.361384 0.946013
363 1 0.776791 0.891777 0.744231
364 1 0.702494 0.133014 0.0711159
365 1 0.259329 0.922085 0.626967
366 1 0.184066 0.630121 0.783438
367 1 0.886818 0.0515947 0.691643
368 1 0.942883 0.308068 0.544921
369 1 0.577072 0.92096 0.705318
370 1 0.894249 0.590005 0.833555
371 1 0.313883 0.743696 0.0262244
372 1 0.759124 0.268888 0.115334
373 1 0.411597 0.732986 0.411842
374 1 0.637458 0.462816 0.00545408
375 1 0.225342 0.561421 0.992015
376 1 0.227401 0.673443 0.419115
377 1 0.135302 0.712003 0.845675
378 1 0.161738 0.228823 0.263256
379 1 0.165716 0.251939 0.517279
380 1 0.950651 0.796291 0.872915
381 1 0.0273449 0.940451 0.808057
382 1 0.541952 0.907073 0.0421442
383 1 0.179275 0.0683457 0.902523
384 1 0.946081 0.157307 0.0948681
385 1 0.383758 0.0559884 0.0213589
386 1 0.241319 0.417664 0.113972
387 1 0.0830724 0.135034 0.918403
388 1 0.452328 0.139191 0.588797
389 1 0.0869243 0.501716 0.713915
390 1 0.920542 0.354467 0.996402
391 1 0.0736311 0.0778103 0.136685
392 1 0.125937 0.141059 0.628282
393 1 0.386746 0.623634 0.459769
394 1 0.371559 0.290659 0.680281
395 1 0.255566 0.337065 0.216081
396 1 0.655327 0.108473 0.105164
397 1 0.0945175 0.43353 0.739219
398 1 0.0698707 0.347946 0.242983
399 1 0.373512 0.103723 0.338744
400 1 0.714345 0.088283 0.107777
401 1 0.874941 0.271147 0.859292
402 1 0.202768 0.87846 0.645709
403 1 0.871309 0.890595 0.346027
404 1 0.667205 0.337299 0.418249
405 1 0.607461 0.0925218 0.212581
406 1 0.53915 0.0134689 0.88133
407 1 0.347693 0.794003 0.506368
408 1 0.626619 0.920897 0.553954
409 1 0.962179 0.0871812 0.222204
410 1 0.0612143 0.0400488 0.279851
411 1 0.0666107 0.873969 0.302827
412 1 0.546455 0.322602 0.59035
413 1 0.552904 0.239627 0.00822665
414 1 0.00129216 0.897915 0.975979
415 1 0.708769 0.274012 0.82862
416 1 0.10976 0.067984 0.253791
417 1 0.142105 0.489325 0.0993186
418 1 0.245523 0.453337 0.161324
419 1 0.64937 0.917722 0.779256
420 1 0.358393 0.506057 0.59528
421 1 0.477181 0.420736 0.254158
422 1 0.527606 0.964544 0.439702
423 1 0.585113 0.24705 0.0771322
424 1 0.662068 0.0559969 0.209936
425 1 0.994952 0.936132 0.44426
426 1 0.505744 0.0743682 0.429251
427 1 0.677474 0.684837 0.385961
428 1 0.15885 0.85998 0.957189
429 1 0.903459 0.860702 0.184656
430 1 0.508953 0.270633 0.198362
431 1 0.918366 0.897624 0.112427
432 1 0.127836 0.281867 0.606665
433 1 0.0384834 0.0273493 0.546146
434 1 0.862592 0.949629 0.529033
435 1 0.948141 0.429905 0.317134
436 1 0.0438754 0.26967 0.886252
437 1 0.38171 0.141828 0.45323
438 1 0.306057 0.57106 0.747131
439 1 0.404201 0.513112 0.86213
440 1 0.0715774 0.585379 0.166749
441 1 0.954768 0.0176793 0.38312
442 1 0.099412 0.913893 0.0561323
443 1 0.745802 0.0789701 0.388283
444 1 0.299252 0.1108 0.569779
445 1 0.980423 0.173785 0.822618
446 1 0.85482 0.971671 0.116138
447 1 0.56726 0.0743952 0.719988
448 1 0.896941 0.269438 0.646136
449 1 0.0817341 0.275164 0.175617
450 1 0.250046 0.582307 0.792118
451 1 0.891172 0.494894 0.983016
452 1 0.636094 0.217264 0.229703
453 1 0.0502082 0.420064 0.0835467
454 1 0.180209 0.216134 0.934254
455 1 0.213368 0.635443 0.206335
456 1 0.680752 0.862271 0.808854
457 1 0.915675 0.0979067 0.531881
458 1 0.39401 0.506944 0.552077
459 1 0.692045 0.898378 0.0107661
460 1 0.959457 0.0529213 0.83134
461 1 0.401469 0.966033 0.501764
462 1 0.165984 0.166111 0.986309
463 1 0.171007 0.39923 0.410058
464 1 0.0684894 0.549894 0.938316
465 1 0.825013 0.243287 0.647221
466 1 0.86302 0.0812 0.365945
467 1 0.85337 0.96887 0.800464
468 1 0.516601 0.129238 0.694816
469 1 0.0419149 0.135787 0.579076
470 1 0.0959807 0.917452 0.702616
471 1 0.815192 0.100173 0.139833
472 1 0.682039 0.539997 0.152045
473 1 0.995297 0.185485 0.0337907
474 1 0.245493 0.875926 0.682298
475 1 0.518736 0.754271 0.394359
476 1 0.684382 0.011569 0.938732
477 1 0.595953 0.943045 0.229101
478 1 0.501481 0.249253 0.320295
479 1 0.742221 0.173822 0.725259
480 1 0.41343 0.324857 0.954621
481 1 0.292038 0.184303 0.964371
482 1 0.930765 0.177303 0.846367
483 1 0.232735 0.798411 0.0726319
484 1 0.323682 0.934207 0.286255
485 1 0.836467 0.406683 0.642336
486 1 0.868317 0.402425 0.0543566
487 1 0.974716 0.744163 0.165912
488 1 0.143667 0.0393191 0.991243
489 1 0.705336 0.113265 0.912749
490 1 0.239468 0.379906 0.760526
491 1 0.639743 0.740854 0.628992
492 1 0.357396 0.0788076 0.283227
493 1 0.224731 0.886682 0.511357
494 1 0.346692 0.988697 0.788314
495 1 0.354781 0.0685584 0.66202
496 1 0.327516 0.66109 0.972284
497 1 0.191935 0.74039 0.0945584
498 1 0.902671 0.0420665 0.35665
499 1 0.936246 0.964652 0.185983
500 1 0.401994 0.697316 0.721747
501 1 0.372467 0.0125177 0.307812
502 1 0.325169 0.0541458 0.0743867
503 1 0.351114 0.60035 0.0574605
504 1 0.862084 0.781586 0.102331
505 1 0.777935 0.452066 0.451329
506 1 0.432122 0.180811 0.446533
507 1 0.226192 0.547965 0.642273
508 1 0.609713 0.944244 0.165048
509 1 0.484999 0.333472 0.214339
510 1 0.41086 0.910157 0.246056
511 1 0.173899 0.846343 0.0250086
512 1 0.970914 0.458475 0.239308
513 1 0.632843 0.37499 0.44924
514 1 0.433316 0.106713 0.455201
515 1 0.458573 0.86056 0.212198
516 1 0.765617 0.417435 0.168852
517 1 0.558782 0.402244 0.831419
518 1 0.531874 0.684609 0.721773
519 1 0.383854 0.518833 0.277533
520 1 0.386677 0.73884 0.672344
521 1 0.583857 0.41373 0.0279428
522 1 0.971518 0.308741 0.312172
523 1 0.940297 0.182159 0.149692
524 1 0.00171713 0.133891 0.116743
525 1 0.755172 0.789482 0.72188
526 1 0.347183 0.425969 0.997607
527 1 0.150656 0.517931 0.97783
528 1 0.139812 0.396314 0.754313
529 1 0.931856 0.342402 0.440884
530 1 0.717568 0.467901 0.844565
531 1 0.0692489 0.373743 0.326749
532 1 0.119527 0.209819 0.594076
533 1 0.772046 0.544308 0.0635124
534 1 0.472156 0.94632 0.381761
535 1 0.135166 0.344364 0.102203
536 1 0.473543 0.107279 0.509837
537 1 0.321608 0.292257 0.818826
538 1 0.311265 0.648531 0.0308996
539 1 0.300588 0.649642 0.861151
540 1 0.576928 0.700646 0.893741
541 1 0.595541 0.463436 0.837086
542 1 0.464342 0.667705 0.947284
543 1 0.578895 0.136183 0.633066
544 1 0.745476 0.411499 0.233241
545 1 0.369406 0.460182 0.173033
546 1 0.29736 0.505989 0.397343
547 1 0.5056 0.544933 0.823237
548 1 0.0220637 0.186197 0.113918
549 1 0.792546 0.667213 0.851366
550 1 0.883753 0.76614 0.42792
551 1 0.947855 0.220144 0.228634
552 1 0.994378 0.255042 0.212411
553 1 0.940403 0.405326 0.123822
554 1 0.770067 0.542924 0.656298
555 1 0.794536 0.561293 0.16527
556 1 0.00705245 0.918285 0.908594
557 1 0.148338 0.366315 0.625268
558 1 0.969279 0.110693 0.83027
559 1 0.833432 0.945985 0.920666
560 1 0.889548 0.152791 0.614811
561 1 0.818373 0.960906 0.693332
562 1 0.871274 0.29281 0.276263
563 1 0.040186 0.512523 0.0939531
564 1 0.336251 0.772423 0.291303
565 1 0.93191 0.693986 0.159876
566 1 0.499542 0.685907 0.56086
567 1 0.340096 0.160699 0.510598
568 1 0.849077 0.650867 0.731463
569 1 0.833146 0.0207223 0.691231
570 1 0.967247 0.461785 0.919897
571 1 0.178134 0.903294 0.073771
572 1 0.305789 0.950868 0.886577
573 1 0.10612 0.586705 0.227849
574 1 0.442724 0.37023 0.653861
575 1 0.100266 0.613742 0.395305
576 1 0.0342868 0.0340056 0.932641
577 1 0.0851655 0.255149 0.117506
578 1 0.203509 0.283868 0.796746
579 1 0.188615 0.423142 0.154945
580 1 0.823847 0.445863 0.900074
581 1 0.221553 0.552083 0.839493
582 1 0.553769 0.235448 0.946342
583 1 0.302198 0.146173 0.113288
584 1 0.986628 0.50299 0.202387
585 1 0.289983 0.593291 0.68322
586 1 0.980333 0.266366 0.913011
587 1 0.212392 0.990424 0.486921
588 1 0.906906 0.00322231 0.306848
589 1 0.047977 0.470385 0.649835
590 1 0.0855142 0.310474 0.0279829
591 1 0.590802 0.122425 0.0841436
592 1 0.719635 0.663597 0.987312
593 1 0.624283 0.276849 0.700439
594 1 0.958891 0.244498 0.363481
595 1 0.226764 0.611098 0.944576
596 1 0.943515 0.204652 0.665239
597 1 0.919189 0.847104 0.905354
598 1 0.341191 0.549649 0.185666
599 1 0.826578 0.966205 0.0648029
600 1 0.652527 0.695574 0.5542
601 1 0.887542 0.208505 0.225606
602 1 0.499635 0.949584 0.629363
603 1 0.266905 0.961173 0.76627
604 1 0.539999 0.72605 0.928255
605 1 0.0396482 0.962349 0.543936
606 1 0.286143 0.302698 0.0742026
607 1 0.818267 0.561403 0.942181
608 1 0.24189 0.27892 0.204335
609 1 0.216326 0.849365 0.981416
610 1 0.031005 0.322818 0.20452
611 1 0.740557 0.787897 0.305977
612 1 0.448199 0.637017 0.120211
613 1 0.281661 0.898813 0.507053
614 1 0.183631 0.341482 0.0738733
615 1 0.64306 0.874033 0.518279
616 1 0.143259 0.526389 0.744951
617 1 0.360248 0.429284 0.830302
618 1 0.327416 0.403559 0.67605
619 1 0.153547 0.516953 0.278903
620 1 0.142004 0.744821 0.385895
621 1 0.851951 0.423385 0.297064
622 1 0.361341 0.314231 0.50165
623 1 0.854485 0.388459 0.161266
624 1 0.428438 0.306891 0.637607
625 1 0.180591 0.711976 0.420767
626 1 0.443222 0.468384 0.898204
627 1 0.858213 0.39756 0.782516
628 1 0.0627688 0.476909 0.157701
629 1 0.850891 0.0161457 0.338046
630 1 0.535266 0.861471 0.389082
631 1 0.74317 0.771721 0.229441
632 1 0.735882 0.817706 0.95055
633 1 0.935496 0.200384 0.496879
634 1 0.113041 0.372694 0.272995
635 1 0.844662 0.530536 0.299708
636 1 0.680055 0.715955 0.151783
637 1 0.771885 0.106422 0.715962
638 1 0.66188 0.93241 0.186759
639 1 0.72959 0.00940856 0.775099
640 1 0.357257 0.0593159 0.392207
641 1 0.338823 0.560349 0.861537
642 1 0.860853 0.605586 0.529288
643 1 0.62373 0.553151 0.223021
644 1 0.910286 0.440773 0.079145
645 1 0.141932 0.792512 0.565224
646 1 0.608375 0.584942 0.112825
647 1 0.664665 0.14842 0.286616
648 1 0.647651 0.618192 0.50327
649 1 0.11856 0.905569 0.947981
650 1 0.0144483 0.400967 0.0280803
651 1 0.121809 0.877447 0.136196
652 1 0.571766 0.844375 0.266282
653 1 0.677876 0.690533 0.219298
654 1 0.977046 0.999078 0.0382418
655 1 0.43818 0.677093 0.23358
656 1 0.412106 0.627196 0.822299
657 1 0.289049 0.943174 0.22371
658 1 0.0131047 0.646693 0.690823
659 1 0.314122 0.362874 0.832863
660 1 0.464742 0.643419 0.865817
661 1 0.137783 0.688304 0.894522
662 1 0.090978 0.541181 0.418122
663 1 0.412913 0.774108 0.220591
664 1 0.0819799 0.710588 0.968397
665 1 0.881948 0.585135 0.418227
666 1 0.071679 0.932052 0.229764
667 1 0.436906 0.31507 0.539194
668 1 0.194839 0.309437 0.177336
669 1 0.832262 0.259617 0.0799143
670 1 0.76795 0.429923 0.506743
671 1 0.553336 0.460434 0.884087
672 1 0.767273 0.986635 0.0570113
673 1 0.714269 0.711464 0.573053
674 1 0.223382 0.622918 0.0181872
675 1 0.359033 0.105739 0.168873
676 1 0.362373 0.390146 0.357281
677 1 0.657476 0.451609 0.927326
678 1 0.880653 0.748931 0.766254
679 1 0.128571 0.0616948 0.315724
680 1 0.902942 0.893667 0.282274
681 1 0.387206 0.799392 0.820018
682 1 0.888252 0.989874 0.675899
683 1 0.377503 0.891784 0.725842
684 1 0.767286 0.125695 0.43805
685 1 0.924163 0.791646 0.946274
686 1 0.115553 0.478535 0.303099
687 1 0.960221 0.565021 0.640039
688 1 0.986274 0.24371 0.966955
689 1 0.261506 0.378223 0.866753
690 1 0.289046 0.16882 0.76235
691 1 0.883532 0.0258039 0.533674
692 1 0.592648 0.694552 0.717308
693 1 0.499164 0.707987 0.975438
694 1 0.255957 0.99515 0.26556
695 1 0.97771 0.231541 0.794079
696 1 0.373451 0.841233 0.485135
697 1 0.734667 0.227714 0.28
698 1 0.0465248 0.530787 0.747508
699 1 0.698475 0.877156 0.9423
700 1 0.722509 0.929181 0.311638
701 1 0.499239 0.694753 0.469831
702 1 0.0692135 0.0400728 0.886264
703 1 0.284358 0.664285 0.467524
704 1 0.741257 0.666099 0.930778
705 1 0.896252 0.914507 0.216754
706 1 0.824829 0.412109 0.482752
707 1 0.940242 0.261906 0.472442
708 1 0.737078 0.149231 0.845427
709 1 0.0232211 0.244425 0.0958858
710 1 0.85965 0.864324 0.0910752
711 1 0.0731047 0.0855924 0.971812
712 1 0.984104 0.785954 0.720099
713 1 0.38681 0.542937 0.488082
714 1 0.872948 0.535709 0.938171
715 1 0.416594 0.599954 0.65913
716 1 0.241855 0.688634 0.884646
717 1 0.369247 0.959852 0.552303
718 1 0.257898 0.998204 0.718175
719 1 0.981202 0.212839 0.543524
720 1 0.903717 0.78964 0.666898
721 1 0.907748 0.830321 0.565467
722 1 0.31676 0.872923 0.0470256
723 1 0.52714 0.771738 0.205434
724 1 0.661326 0.676957 0.492198
725 1 0.660206 0.926989 0.112569
726 1 0.269203 0.136525 0.669211
727 1 0.107205 0.0709824 0.372444
728 1 0.735906 0.521193 0.188536
729 1 0.661343 0.284267 0.59312
730 1 0.407843 0.531599 0.743142
731 1 0.302357 0.659237 0.205446
732 1 0.933572 0.648522 0.2017
733 1 0.475708 0.753222 0.436944
734 1 0.954642 0.841425 0.71748
735 1 0.968806 0.211462 0.0905937
736 1 0.338431 0.811132 0.184534
737 1 0.181819 0.65647 0.885978
738 1 0.29799 0.836682 0.677845
739 1 0.545948 0.609425 0.063369
740 1 0.176827 0.761067 0.0293114
741 1 0.812496 0.402929 0.707187
742 1 0.635864 0.328307 0.338377
743 1 0.0626301 0.328375 0.365578
744 1 0.596775 0.262936 0.593904
745 1 0.539834 0.839582 0.595876
746 1 0.699542 0.143531 0.146583
747 1 0.12012 0.370871 0.377248
748 1 0.0720133 0.529857 0.56999
749 1 0.553981 0.347488 0.905128
750 1 0.0873866 0.430129 0.328312
751 1 0.988333 0.812719 0.80555
752 1 0.968948 0.369368 0.214609
753 1 0.434692 0.992207 0.293945
754 1 0.994834 0.659572 0.747347
755 1 0.857953 0.376105 0.351468
756 1 0.209927 0.443567 0.485176
757 1 0.633867 0.903196 0.451613
758 1 0.869122 0.978559 0.729926
759 1 0.326005 0.0939313 0.12153
760 1 0.860702 0.188249 0.826815
761 1 0.806591 0.610822 0.741524
762 1 0.0557734 0.230026 0.289524
763 1 0.185981 0.454307 0.0140453
764 1 0.382092 0.270812 0.263013
765 1 0.909371 0.0934255 0.939102
766 1 0.130547 0.189954 0.0447148
767 1 0.634467 0.504491 0.11676
768 1 0.0551288 0.841241 0.423419
769 1 0.90737 0.946093 0.853405
770 1 0.946975 0.373525 0.552867
771 1 0.717345 0.963259 0.0254367
772 1 0.334322 0.164621 0.582105
773 1 0.554265 0.596526 0.408479
774 1 0.832758 0.601835 0.0499256
775 1 0.0497173 0.969459 0.482574
776 1 0.434504 0.847468 0.455825
777 1 0.727793 0.0334608 0.841218
778 1 0.573328 0.680137 0.950506
779 1 0.328133 0.653282 0.281627
780 1 0.695519 0.791353 0.269556
781 1 0.507739 0.595701 0.0251663
782 1 0.484458 0.189542 0.577778
783 1 0.732109 0.164004 0.525299
784 1 0.0603708 0.757476 0.933826
785 1 0.65134 0.540302 0.381807
786 1 0.747059 0.165463 0.177344
787 1 0.70611 0.0912136 0.4359
788 1 0.490936 0.968033 0.14975
789 1 0.605126 0.212699 0.375693
790 1 0.495919 0.318127 0.344052
791 1 0.148255 0.12012 0.41594
792 1 0.142237 0.98747 0.620876
793 1 0.788145 0.107068 0.229954
794 1 0.523446 0.784246 0.927474
795 1 0.189323 0.768784 0.449695
796 1 0.63596 0.689226 0.783929
797 1 0.969659 0.762934 0.223498
798 1 0.0205987 0.743174 0.648211
799 1 0.371601 0.859879 0.113662
800 1 0.591727 0.375426 0.0711387
801 1 0.624187 0.892463 0.655275
802 1 0.110619 0.861556 0.43448
803 1 0.171796 0.157466 0.0981407
804 1 0.311779 0.349619 0.101244
805 1 0.58853 0.296259 0.938864
806 1 0.31851 0.381904 0.618846
807 1 0.0684508 0.198538 0.560837
808 1 0.300349 0.390168 0.0269881
809 1 0.458402 0.445441 0.0391907
810 1 0.329787 0.93861 0.173543
811 1 0.0658396 0.272135 0.600863
812 1 0.204008 0.995433 0.620023
813 1 0.372205 0.970712 0.614993
814 1 0.38306 0.555579 0.960047
815 1 0.335068 0.320169 0.426514
816 1 0.132147 0.00309269 0.287251
817 1 0.792804 0.925743 0.233341
818 1 0.386357 0.266795 0.0460451
819 1 0.406164 0.881956 0.540234
820 1 0.102788 0.731626 0.162083
821 1 0.805208 0.0845711 0.416004
822 1 0.126311 0.154357 0.704666
823 1 0.546917 0.0479856 0.293371
824 1 0.165988 0.360167 0.996298
825 1 0.904575 0.822557 0.338265
826 1 0.838915 0.711275 0.845704
827 1 0.178665 0.574712 0.229913
828 1 0.562831 0.811795 0.544421
829 1 0.841243 0.135413 0.56565
830 1 0.916416 0.981899 0.906037
831 1 0.624147 0.332067 0.0178172
832 1 0.192862 0.945315 0.216786
833 1 0.557651 0.00440278 0.333227
834 1 0.373783 0.359198 0.68778
835 1 0.891909 0.434138 0.837989
836 1 0.805516 0.655675 0.465265
837 1 0.809287 0.833138 0.0796133
838 1 0.810226 0.326098 0.630952
839 1 0.0647419 0.776327 0.716767
840 1 0.724603 0.983225 0.336017
841 1 0.354165 0.968942 0.924515
842 1 0.319323 0.129952 0.809975
843 1 0.196985 0.00949414 0.298679
844 1 0.162174 0.687139 0.947963
845 1 0.383906 0.169278 0.280569
846 1 0.280445 0.756272 0.655909
847 1 0.519209 0.778654 0.747248
848 1 0.905124 0.482269 0.254085
849 1 0.255846 0.994568 0.565715
850 1 0.269747 0.221423 0.503125
851 1 0.555139 0.0393846 0.833766
852 1 0.69108 0.803179 0.101748
853 1 0.974851 0.761805 0.0244788
854 1 0.724144 0.183501 0.234047
855 1 0.959768 0.0264188 0.0946869
856 1 0.141556 0.238018 0.108598
857 1 0.22418 0.289482 0.369649
858 1 0.0373972 0.264812 0.0215238
859 1 0.262026 0.0534877 0.552792
860 1 0.605132 0.383728 0.514135
861 1 0.873786 0.079454 0.162797
862 1 0.5965 0.516463 0.495806
863 1 0.809023 0.714836 0.509518
864 1 0.364738 0.223808 0.699424
865 1 0.59591 0.342907 0.126956
866 1 0.100949 0.963342 0.576626
867 1 0.816488 0.29192 0.139656
868 1 0.744576 0.877249 0.496149
869 1 0.0443491 0.79293 0.22108
870 1 0.197358 0.362878 0.144688
871 1 0.605642 0.699871 0.137647
872 1 0.833473 0.90562 0.806455
873 1 0.355745 0.21472 0.200006
874 1 0.762731 0.294451 0.614338
875 1 0.451224 0.683328 0.0121134
876 1 0.398663 0.157681 0.0430371
877 1 0.818039 0.860249 0.134446
878 1 0.953434 0.881614 0.417076
879 1 0.0632047 0.207116 0.152442
880 1 0.825649 0.946949 0.468699
881 1 0.643783 0.585071 0.553946
882 1 0.930723 0.480456 0.0330722
883 1 0.561616 0.53028 0.790923
884 1 0.796361 0.591831 0.226909
885 1 0.606674 0.575831 0.510922
886 1 0.951888 0.0645933 0.00673935
887 1 0.686166 0.294553 0.654498
888 1 0.469055 0.810452 0.123576
889 1 0.90027 0.217511 0.454503
890 1 0.890307 0.648957 0.971136
891 1 0.503576 0.159253 0.243993
892 1 0.746222 0.141862 0.108937
893 1 0.984762 0.813012 0.649209
894 1 0.502854 0.287783 0.850811
895 1 0.697876 0.478197 0.608708
896 1 0.87043 0.0766389 0.574383
897 1 0.74863 0.0396083 0.917464
898 1 0.82936 0.0628627 0.465064
899 1 0.665154 0.756521 0.0338874
900 1 0.356404 0.65338 0.402761
901 1 0.408791 0.349106 0.888579
902 1 0.588494 0.31934 0.696169
903 1 0.291435 0.069755 0.277919