ITEM: TIMESTEP
10700
ITEM: NUMBER OF ATOMS
4000
ITEM: BOX BOUNDS pp pp pp
0.0000000000000000e+00 1.6795961913825074e+01
0.0000000000000000e+00 1.6795961913825074e+01
0.0000000000000000e+00 1.6795961913825074e+01
ITEM: ATOMS id type xs ys zs
1 1 0.00210971 0.00102545 0.995156
2 1 0.0503419 0.050509 0.990545
3 1 0.0546714 0.994871 0.0479794
4 1 0.00506099 0.0510454 0.0407433
5 1 0.100042 0.995837 0.993289
6 1 0.15298 0.0558844 0.999032
7 1 0.14858 0.000262472 0.0478148
8 1 0.103543 0.0496694 0.0488348
9 1 0.19729 0.994928 0.000604506
10 1 0.250545 0.0543777 0.00298514
11 1 0.248859 0.00644875 0.0524487
12 1 0.199381 0.0558625 0.0474255
13 1 0.300644 0.00324408 0.00599894
14 1 0.346905 0.0526708 0.00218574
15 1 0.350776 0.00631718 0.0556735
16 1 0.30039 0.0530065 0.050286
17 1 0.39804 0.0065545 0.00394129
18 1 0.447882 0.0570979 0.998128
19 1 0.448607 0.00106584 0.0547618
20 1 0.396493 0.053373 0.0544511
21 1 0.489748 0.998961 0.997703
22 1 0.551714 0.0523895 0.995512
23 1 0.547618 0.00436476 0.0447638
24 1 0.497199 0.0492946 0.0505255
25 1 0.59608 0.00292523 0.000787327
26 1 0.652251 0.0450596 0.00408736
27 1 0.646967 1.00059 0.0526117
28 1 0.600793 0.0498628 0.0526778
29 1 0.697391 0.996098 0.00164422
30 1 0.747208 0.0453042 0.000755638
31 1 0.748135 0.995853 0.0516394
32 1 0.700252 0.0475817 0.0511656
33 1 0.796094 0.996199 0.00111009
34 1 0.849328 0.0426553 0.997981
35 1 0.85252 0.995545 0.0495928
36 1 0.796562 0.0481617 0.0502383
37 1 0.900287 0.99272 0.00264969
38 1 0.951011 0.0433827 0.9923
39 1 0.951405 0.996229 0.0451766
40 1 0.901747 0.0429992 0.0439288
41 1 0.00238379 0.0975223 0.996924
42 1 0.0514171 0.149941 0.000481371
43 1 0.0488959 0.103019 0.0498493
44 1 0.000984718 0.152609 0.0509923
45 1 0.102821 0.0997272 0.993841
46 1 0.150483 0.146198 0.00197849
47 1 0.151486 0.102236 0.0538077
48 1 0.100212 0.152193 0.0509525
49 1 0.200603 0.102809 0.00118059
50 1 0.252746 0.151434 1.00061
51 1 0.250032 0.104712 0.0466762
52 1 0.199725 0.150901 0.0492886
53 1 0.300156 0.100471 0.00206491
54 1 0.348864 0.151057 1.0002
55 1 0.349038 0.103404 0.0491904
56 1 0.300109 0.147098 0.0529298
57 1 0.395442 0.103591 0.00290429
58 1 0.451448 0.153551 0.000151169
59 1 0.452901 0.10364 0.0516927
60 1 0.397602 0.154063 0.052225
61 1 0.496697 0.10082 0.00139598
62 1 0.551795 0.150532 0.0047699
63 1 0.551488 0.0960673 0.0526897
64 1 0.501763 0.148605 0.0537271
65 1 0.600216 0.094691 0.000394609
66 1 0.648071 0.147736 0.999321
67 1 0.648317 0.0985909 0.0517478
68 1 0.600575 0.149964 0.0510295
69 1 0.695659 0.0972129 0.00743886
70 1 0.742309 0.152801 0.00348733
71 1 0.746316 0.0989154 0.048885
72 1 0.697452 0.150147 0.0526096
73 1 0.799692 0.0937365 -0.000530042
74 1 0.84754 0.143194 0.00436604
75 1 0.850744 0.0861718 0.0479166
76 1 0.796591 0.146749 0.048692
77 1 0.900965 0.0940775 0.996284
78 1 0.958363 0.147058 0.00149466
79 1 0.954083 0.0918659 0.0447105
80 1 0.90584 0.145506 0.0475749
81 1 0.00113297 0.197656 0.0023105
82 1 0.0469485 0.245446 0.00127912
83 1 0.0546472 0.199448 0.0467008
84 1 0.00294092 0.247579 0.0519311
85 1 0.101332 0.20161 1.00018
86 1 0.154413 0.249614 0.00422292
87 1 0.147587 0.197797 0.0490266
88 1 0.103782 0.249967 0.047661
89 1 0.200435 0.200626 0.00550743
90 1 0.246875 0.248294 0.00557612
91 1 0.250496 0.197413 0.0516214
92 1 0.202462 0.244989 0.0551587
93 1 0.298191 0.2002 0.00361714
94 1 0.347627 0.251267 0.00390328
95 1 0.351105 0.201416 0.0496128
96 1 0.297841 0.255896 0.051555
97 1 0.399605 0.197438 0.00243584
98 1 0.452003 0.247893 0.00178774
99 1 0.454086 0.202672 0.0521154
100 1 0.400994 0.246283 0.0525962
101 1 0.498512 0.20039 0.00305631
102 1 0.544655 0.246708 0.00371951
103 1 0.54746 0.20018 0.0553668
104 1 0.499605 0.252866 0.0526398
105 1 0.604602 0.195419 0.00704931
106 1 0.646806 0.251062 0.00425825
107 1 0.648725 0.198667 0.0529168
108 1 0.596474 0.245404 0.0561346
109 1 0.697639 0.202424 0.00525447
110 1 0.745381 0.248608 0.00793068
111 1 0.747041 0.201643 0.0535784
112 1 0.69608 0.24831 0.0565643
113 1 0.79574 0.202888 0.00106408
114 1 0.850466 0.24432 1.00167
115 1 0.846045 0.199364 0.047447
116 1 0.800898 0.248676 0.0484826
117 1 0.897167 0.194409 0.00529285
118 1 0.953037 0.248984 0.00656489
119 1 0.952437 0.198265 0.0485861
120 1 0.90431 0.248532 0.0518296
121 1 0.00311692 0.297404 0.00149556
122 1 0.0491876 0.351438 0.998132
123 1 0.0484346 0.298248 0.0525115
124 1 0.00273093 0.351107 0.0543806
125 1 0.100277 0.301403 0.00228073
126 1 0.147577 0.358632 0.0025734
127 1 0.154146 0.299005 0.0479107
128 1 0.0970766 0.349461 0.0494538
129 1 0.205019 0.299812 0.998344
130 1 0.2544 0.347537 0.992114
131 1 0.246818 0.294613 0.0520633
132 1 0.206659 0.348363 0.0426545
133 1 0.299297 0.300781 0.997322
134 1 0.350104 0.34682 0.993204
135 1 0.347457 0.299909 0.0529081
136 1 0.293676 0.344404 0.0487581
137 1 0.397365 0.300279 0.00487591
138 1 0.452716 0.354913 0.998112
139 1 0.447707 0.297835 0.0515093
140 1 0.398447 0.350651 0.0518912
141 1 0.495076 0.296443 0.00203703
142 1 0.546993 0.344438 0.00383235
143 1 0.546832 0.300141 0.0573155
144 1 0.498111 0.353284 0.0532433
145 1 0.596074 0.295242 0.00745937
146 1 0.648106 0.344448 0.00197718
147 1 0.650485 0.297078 0.0523167
148 1 0.595348 0.352756 0.049432
149 1 0.706355 0.303196 0.999687
150 1 0.748453 0.351958 0.99252
151 1 0.74194 0.29314 0.0582836
152 1 0.697799 0.349491 0.0516167
153 1 0.802449 0.295605 0.998969
154 1 0.8458 0.348029 0.000429047
155 1 0.849806 0.29194 0.053532
156 1 0.797572 0.339329 0.0529976
157 1 0.902029 0.291434 0.00161361
158 1 0.953058 0.349169 0.997728
159 1 0.956601 0.296792 0.0551884
160 1 0.901753 0.346872 0.0503035
161 1 0.0022466 0.401192 1.00003
162 1 0.0436683 0.45297 0.997665
163 1 0.0462597 0.405352 0.0491328
164 1 0.998525 0.451612 0.0503064
165 1 0.0945542 0.405091 0.00495747
166 1 0.147019 0.452128 0.999295
167 1 0.146527 0.40623 0.0501801
168 1 0.0958732 0.454076 0.0474856
169 1 0.199965 0.399139 0.998675
170 1 0.249274 0.446432 0.998095
171 1 0.250956 0.39648 0.0482207
172 1 0.20253 0.448401 0.0458167
173 1 0.301934 0.401257 0.996767
174 1 0.348612 0.44815 1.0002
175 1 0.346959 0.39716 0.0462693
176 1 0.295415 0.451731 0.0415087
177 1 0.397151 0.397143 0.997553
178 1 0.446746 0.450417 0.00456028
179 1 0.448207 0.401391 0.0514363
180 1 0.397196 0.451659 0.0556352
181 1 0.496389 0.402512 0.997888
182 1 0.543269 0.456693 0.00796496
183 1 0.546817 0.404917 0.0551824
184 1 0.49496 0.454975 0.0513768
185 1 0.60305 0.405064 0.995619
186 1 0.64881 0.4523 0.998827
187 1 0.646325 0.400656 0.052906
188 1 0.5998 0.45063 0.0519721
189 1 0.697698 0.405682 0.00853456
190 1 0.752236 0.451959 1.00058
191 1 0.745504 0.397677 0.0604676
192 1 0.696432 0.451646 0.0580912
193 1 0.797418 0.401048 0.00088826
194 1 0.852371 0.451668 0.0095484
195 1 0.849746 0.397688 0.0483642
196 1 0.800001 0.448173 0.053141
197 1 0.90204 0.402125 0.998235
198 1 0.955305 0.448907 0.997389
199 1 0.949959 0.401637 0.0550223
200 1 0.905449 0.450413 0.0514719
201 1 1.0003 0.500478 0.999849
202 1 0.0552144 0.553957 0.99975
203 1 0.0518379 0.505171 0.0509156
204 1 0.00185352 0.551918 0.05504
205 1 0.0966872 0.499553 0.995379
206 1 0.1554 0.549798 0.997094
207 1 0.146866 0.498044 0.0522429
208 1 0.101085 0.551224 0.0497943
209 1 0.197209 0.499651 0.00125591
210 1 0.247455 0.554833 0.00147868
211 1 0.24754 0.507706 0.0513145
212 1 0.195588 0.551637 0.0503666
213 1 0.294654 0.502155 0.996478
214 1 0.344017 0.555868 0.00725936
215 1 0.344265 0.497743 0.0432284
216 1 0.293069 0.555991 0.0513084
217 1 0.401762 0.50275 0.00352226
218 1 0.449078 0.552525 0.999937
219 1 0.451694 0.501324 0.0523271
220 1 0.398186 0.550681 0.053021
221 1 0.494144 0.502407 0.00163748
222 1 0.547285 0.546614 0.00192494
223 1 0.548695 0.500415 0.0594798
224 1 0.500989 0.548571 0.0523391
225 1 0.593107 0.498671 0.00227272
226 1 0.648272 0.554321 0.00646646
227 1 0.64788 0.49587 0.0543584
228 1 0.592381 0.547619 0.0542071
229 1 0.70415 0.496225 0.00427904
230 1 0.75262 0.551521 0.00565838
231 1 0.750629 0.496783 0.0543867
232 1 0.699689 0.542433 0.0521748
233 1 0.804505 0.499966 0.00867807
234 1 0.852016 0.554516 0.00276586
235 1 0.854849 0.498849 0.0598396
236 1 0.802997 0.551405 0.0544184
237 1 0.904228 0.499744 0.00210795
238 1 0.952571 0.548893 0.99965
239 1 0.953023 0.504989 0.0510925
240 1 0.901655 0.551663 0.0529504
241 1 0.998768 0.601029 0.998696
242 1 0.0534969 0.65033 0.00175339
243 1 0.0501138 0.603536 0.0517867
244 1 0.00155828 0.65393 0.0429667
245 1 0.100305 0.605213 0.00647036
246 1 0.1494 0.653638 0.00151983
247 1 0.149118 0.603494 0.0582822
248 1 0.0987614 0.653021 0.0501876
249 1 0.19818 0.600764 0.00663844
250 1 0.246878 0.650653 0.998678
251 1 0.247266 0.601007 0.0534621
252 1 0.200418 0.653493 0.0505726
253 1 0.295997 0.605978 0.999916
254 1 0.344266 0.65357 0.00358629
255 1 0.348729 0.608059 0.0553266
256 1 0.294718 0.648612 0.0527338
257 1 0.401229 0.598988 0.00240465
258 1 0.456076 0.654415 0.995676
259 1 0.452944 0.600531 0.0511858
260 1 0.397724 0.655288 0.0517675
261 1 0.500245 0.598618 1.0002
262 1 0.541617 0.649629 0.000786774
263 1 0.550326 0.599507 0.0481115
264 1 0.498789 0.654597 0.0491127
265 1 0.60052 0.600202 0.00346034
266 1 0.654961 0.651708 0.999511
267 1 0.649625 0.606374 0.0482967
268 1 0.601496 0.650426 0.0488336
269 1 0.701922 0.600045 0.00499526
270 1 0.751992 0.647386 0.0021059
271 1 0.753312 0.598362 0.0560035
272 1 0.698442 0.649846 0.0525263
273 1 0.802427 0.600498 0.00304233
274 1 0.849786 0.655901 0.997803
275 1 0.854774 0.60332 0.0516392
276 1 0.804903 0.648766 0.0472116
277 1 0.899709 0.602416 0.00287815
278 1 0.945229 0.65471 0.00301093
279 1 0.947769 0.602393 0.0463193
280 1 0.901386 0.654256 0.051328
281 1 0.997322 0.70693 -8.33757e-05
282 1 0.0474087 0.753892 0.00543401
283 1 0.0475483 0.703778 0.0492087
284 1 0.99816 0.751703 0.0504765
285 1 0.0930685 0.703069 5.28327e-05
286 1 0.146677 0.750321 0.00209244
287 1 0.147627 0.704849 0.0475072
288 1 0.0984085 0.75304 0.0526773
289 1 0.200786 0.701596 0.00684379
290 1 0.251783 0.750328 0.00174585
291 1 0.25247 0.709688 0.0528468
292 1 0.195211 0.753719 0.0531006
293 1 0.29586 0.701579 1.88161e-05
294 1 0.351605 0.754495 0.00308622
295 1 0.343216 0.700927 0.0507214
296 1 0.299949 0.758364 0.0483528
297 1 0.404369 0.700099 -0.000322376
298 1 0.446794 0.753369 0.00649901
299 1 0.447725 0.698228 0.0551514
300 1 0.400911 0.753977 0.0541474
301 1 0.503634 0.701331 0.997841
302 1 0.550586 0.749897 0.996978
303 1 0.55067 0.707779 0.0493447
304 1 0.503778 0.75448 0.0507129
305 1 0.597612 0.700287 0.998801
306 1 0.652398 0.750368 0.999417
307 1 0.651015 0.698618 0.0548501
308 1 0.602951 0.752113 0.045434
309 1 0.700858 0.697368 -0.00020804
310 1 0.750978 0.751248 0.00420999
311 1 0.751181 0.699108 0.051696
312 1 0.698458 0.747828 0.0507273
313 1 0.794471 0.703321 1.00039
314 1 0.847684 0.746995 0.000344383
315 1 0.850312 0.701834 0.0500397
316 1 0.798304 0.751692 0.049289
317 1 0.902663 0.708431 1.00003
318 1 0.950231 0.752343 0.00309464
319 1 0.946705 0.702413 0.0497903
320 1 0.899603 0.749983 0.0517585
321 1 1.00006 0.80132 0.00196296
322 1 0.044182 0.849965 0.993836
323 1 0.047983 0.80273 0.0532827
324 1 0.997547 0.851681 0.0513713
325 1 0.102969 0.806181 0.000948419
326 1 0.15224 0.858665 0.999809
327 1 0.145976 0.810256 0.051587
328 1 0.0961873 0.855203 0.0514343
329 1 0.196994 0.798397 0.00194162
330 1 0.246067 0.850121 0.000595176
331 1 0.244261 0.802601 0.0499254
332 1 0.199012 0.855118 0.0509745
333 1 0.296874 0.805309 0.00291839
334 1 0.350641 0.849252 0.996343
335 1 0.352393 0.804245 0.0497031
336 1 0.297347 0.848902 0.0534798
337 1 0.403772 0.804824 0.00391052
338 1 0.453238 0.848758 0.997732
339 1 0.454439 0.801707 0.054094
340 1 0.403695 0.852963 0.0529081
341 1 0.502741 0.801187 0.999496
342 1 0.554251 0.849574 0.996706
343 1 0.549649 0.79939 0.0490097
344 1 0.505366 0.852264 0.0532678
345 1 0.600101 0.802323 0.999032
346 1 0.649614 0.851529 1.00042
347 1 0.646226 0.799285 0.0561838
348 1 0.600797 0.849501 0.0556479
349 1 0.699483 0.797565 0.00159034
350 1 0.749812 0.847394 0.997685
351 1 0.75036 0.799428 0.0531266
352 1 0.700039 0.84893 0.0468327
353 1 0.801568 0.796307 0.00037398
354 1 0.84856 0.851211 0.998437
355 1 0.850153 0.801014 0.0436163
356 1 0.798342 0.848232 0.0524816
357 1 0.89993 0.802663 -0.000399034
358 1 0.949724 0.847965 0.00312515
359 1 0.953013 0.802838 0.0513114
360 1 0.90399 0.850754 0.0503859
361 1 0.00198227 0.898241 0.99808
362 1 0.0482032 0.943987 0.997754
363 1 0.0454998 0.896731 0.0468395
364 1 0.00161318 0.947786 0.0457769
365 1 0.09644 0.902181 1.00062
366 1 0.146345 0.942694 0.998097
367 1 0.153419 0.900953 0.052491
368 1 0.100447 0.947078 0.0526956
369 1 0.202821 0.905623 0.00300905
370 1 0.251842 0.952618 0.996522
371 1 0.247423 0.90176 0.0522854
372 1 0.198794 0.952872 0.0529637
373 1 0.301626 0.895914 0.998418
374 1 0.351231 0.950489 0.00326524
375 1 0.35118 0.902948 0.0544344
376 1 0.302467 0.950157 0.0526744
377 1 0.395782 0.902027 1.00008
378 1 0.449242 0.944652 0.00297648
379 1 0.45203 0.901986 0.0523477
380 1 0.400334 0.955463 0.0500434
381 1 0.50228 0.897629 0.00669848
382 1 0.551035 0.947071 0.00337928
383 1 0.553914 0.898884 0.0528212
384 1 0.498741 0.953308 0.052057
385 1 0.598492 0.901458 4.44903e-05
386 1 0.651122 0.941944 0.997524
387 1 0.650783 0.897678 0.0493309
388 1 0.598849 0.951864 0.0543309
389 1 0.69966 0.896718 0.996998
390 1 0.747335 0.945987 0.00781534
391 1 0.747396 0.895358 0.0532978
392 1 0.698314 0.945927 0.0510742
393 1 0.799815 0.899216 0.000940205
394 1 0.852367 0.946016 0.00714349
395 1 0.84947 0.893495 0.055218
396 1 0.798884 0.946762 0.0504349
397 1 0.90162 0.900973 0.00278627
398 1 0.956913 0.948898 0.994691
399 1 0.945712 0.9033 0.0547584
400 1 0.898034 0.943097 0.057005
401 1 0.00178884 0.997005 0.0983995
402 1 0.0505487 0.045779 0.0941655
403 1 0.047654 0.000847142 0.148603
404 1 0.996922 0.0431052 0.154254
405 1 0.0997077 0.998971 0.102383
406 1 0.156505 0.049947 0.101301
407 1 0.151036 0.00182203 0.152188
408 1 0.102989 0.052752 0.142938
409 1 0.201439 0.997975 0.0998769
410 1 0.245998 0.0530659 0.103753
411 1 0.248484 0.00266953 0.14866
412 1 0.199742 0.0504639 0.153294
413 1 0.299208 0.00535204 0.0993751
414 1 0.346929 0.0555915 0.102534
415 1 0.34438 0.00720269 0.148933
416 1 0.296106 0.0547901 0.153728
417 1 0.40094 0.00587446 0.106523
418 1 0.447694 0.0543009 0.100799
419 1 0.452014 0.99472 0.15338
420 1 0.398272 0.0504108 0.152661
421 1 0.494972 0.00187623 0.104234
422 1 0.55361 0.0527078 0.10435
423 1 0.548156 0.00388062 0.155275
424 1 0.496929 0.0540021 0.153221
425 1 0.606568 0.999534 0.10479
426 1 0.649496 0.0488788 0.101253
427 1 0.654857 0.999342 0.156509
428 1 0.599999 0.0537578 0.15283
429 1 0.697954 0.999578 0.100818
430 1 0.74624 0.0499614 0.101757
431 1 0.75105 1.00033 0.149563
432 1 0.699082 0.0485677 0.151298
433 1 0.79746 0.995651 0.0976127
434 1 0.842871 0.0431048 0.0981222
435 1 0.852052 0.999588 0.151269
436 1 0.798901 0.0483619 0.148803
437 1 0.897013 0.0015875 0.097858
438 1 0.949501 0.0471171 0.0972179
439 1 0.944851 0.998605 0.150497
440 1 0.892224 0.0509245 0.148178
441 1 0.00461578 0.0949777 0.1033
442 1 0.0526587 0.151775 0.10009
443 1 0.055182 0.0996285 0.146552
444 1 0.00684913 0.152452 0.151104
445 1 0.0995585 0.103194 0.0974525
446 1 0.152718 0.152237 0.101225
447 1 0.152523 0.102742 0.14935
448 1 0.103689 0.148417 0.149763
449 1 0.204626 0.100777 0.0998816
450 1 0.252624 0.153591 0.104099
451 1 0.248897 0.101696 0.154575
452 1 0.198344 0.151961 0.15102
453 1 0.297598 0.101727 0.103376
454 1 0.347278 0.151222 0.104784
455 1 0.348783 0.103306 0.150047
456 1 0.304164 0.154612 0.156734
457 1 0.395649 0.104815 0.102309
458 1 0.448313 0.151146 0.0994304
459 1 0.448966 0.0973688 0.154193
460 1 0.4021 0.151016 0.152262
461 1 0.501412 0.0919979 0.100694
462 1 0.542404 0.143898 0.106245
463 1 0.552356 0.101221 0.154357
464 1 0.495266 0.153886 0.161645
465 1 0.599363 0.105382 0.0993558
466 1 0.649057 0.152324 0.103359
467 1 0.649549 0.102088 0.149746
468 1 0.59463 0.15122 0.14946
469 1 0.697095 0.100037 0.101732
470 1 0.748689 0.146712 0.100974
471 1 0.749674 0.0981612 0.148881
472 1 0.699942 0.154272 0.14976
473 1 0.795849 0.0963282 0.0938873
474 1 0.844809 0.148594 0.0966833
475 1 0.845293 0.0995755 0.146388
476 1 0.798749 0.151825 0.150788
477 1 0.900499 0.0978523 0.0957509
478 1 0.952185 0.153625 0.10711
479 1 0.950508 0.0928656 0.149236
480 1 0.89892 0.148604 0.14735
481 1 0.00140235 0.198946 0.106739
482 1 0.0519238 0.248363 0.100158
483 1 0.0577265 0.199459 0.150679
484 1 1.00057 0.250734 0.150929
485 1 0.105819 0.202517 0.0988589
486 1 0.152302 0.248228 0.100234
487 1 0.150756 0.202787 0.152329
488 1 0.102756 0.254416 0.148866
489 1 0.199537 0.201208 0.10112
490 1 0.25185 0.251342 0.10533
491 1 0.254932 0.202612 0.148618
492 1 0.200544 0.249786 0.147263
493 1 0.303421 0.201353 0.102793
494 1 0.346273 0.248852 0.0968401
495 1 0.348396 0.205841 0.14964
496 1 0.298523 0.248673 0.151502
497 1 0.403836 0.200644 0.102682
498 1 0.454725 0.25196 0.105662
499 1 0.450837 0.200546 0.152477
500 1 0.400864 0.253075 0.147532
501 1 0.500099 0.195651 0.103915
502 1 0.54737 0.247699 0.10269
503 1 0.543663 0.197719 0.15098
504 1 0.497308 0.250961 0.156264
505 1 0.596725 0.199921 0.102849
506 1 0.646164 0.246915 0.10504
507 1 0.644842 0.19908 0.150234
508 1 0.591725 0.24632 0.154489
509 1 0.698633 0.200901 0.102599
510 1 0.751536 0.247168 0.10058
511 1 0.749072 0.198553 0.14872
512 1 0.69648 0.248988 0.150238
513 1 0.795347 0.198884 0.0989069
514 1 0.853727 0.244622 0.0988177
515 1 0.85649 0.200701 0.152061
516 1 0.80166 0.249288 0.149082
517 1 0.899708 0.196503 0.0932863
518 1 0.953685 0.247923 0.101417
519 1 0.950841 0.205987 0.156074
520 1 0.902407 0.253327 0.153869
521 1 0.00281975 0.297517 0.103308
522 1 0.0505677 0.355985 0.097662
523 1 0.053832 0.299071 0.147211
524 1 0.00326555 0.354126 0.149294
525 1 0.101787 0.298972 0.0939346
526 1 0.148488 0.353177 0.0984122
527 1 0.150291 0.303006 0.148368
528 1 0.100289 0.344963 0.143282
529 1 0.198786 0.302845 0.101852
530 1 0.248251 0.350416 0.103324
531 1 0.247809 0.302284 0.149981
532 1 0.200821 0.354899 0.149202
533 1 0.299008 0.295948 0.101819
534 1 0.34511 0.343047 0.100779
535 1 0.347011 0.297157 0.149502
536 1 0.298401 0.348487 0.152124
537 1 0.396858 0.299654 0.100729
538 1 0.447263 0.346231 0.0984379
539 1 0.44954 0.304997 0.155935
540 1 0.395168 0.349369 0.149453
541 1 0.496639 0.300876 0.10591
542 1 0.544905 0.34651 0.104881
543 1 0.547362 0.298362 0.148813
544 1 0.498893 0.349656 0.156295
545 1 0.597718 0.29448 0.10572
546 1 0.644974 0.349935 0.102054
547 1 0.64614 0.295401 0.154025
548 1 0.598807 0.349739 0.150142
549 1 0.693255 0.296154 0.104835
550 1 0.752135 0.351087 0.105368
551 1 0.745331 0.300255 0.148612
552 1 0.691555 0.345486 0.154763
553 1 0.798779 0.294919 0.103356
554 1 0.846812 0.348548 0.0979059
555 1 0.851865 0.298911 0.145904
556 1 0.797655 0.345895 0.151904
557 1 0.898801 0.298668 0.0991367
558 1 0.954456 0.350251 0.103684
559 1 0.952228 0.299601 0.152537
560 1 0.901009 0.344879 0.155401
561 1 0.00409365 0.405533 0.104808
562 1 0.0469712 0.458775 0.0980671
563 1 0.0544483 0.404034 0.152257
564 1 0.00546518 0.452021 0.150885
565 1 0.0979721 0.405979 0.101653
566 1 0.147756 0.456487 0.10379
567 1 0.149164 0.401327 0.149245
568 1 0.0961357 0.454926 0.150445
569 1 0.202136 0.404835 0.0969171
570 1 0.249433 0.455241 0.094431
571 1 0.247958 0.400927 0.152424
572 1 0.196884 0.445718 0.146466
573 1 0.296592 0.397193 0.102878
574 1 0.344596 0.444847 0.101757
575 1 0.35007 0.395562 0.150299
576 1 0.295717 0.450193 0.145073
577 1 0.399274 0.401236 0.102453
578 1 0.445578 0.447949 0.102983
579 1 0.444801 0.395773 0.150968
580 1 0.39548 0.4482 0.153585
581 1 0.494969 0.399499 0.103958
582 1 0.541809 0.450388 0.107161
583 1 0.551415 0.400455 0.153082
584 1 0.49477 0.444191 0.154255
585 1 0.597071 0.402799 0.0999822
586 1 0.648499 0.450489 0.100882
587 1 0.645868 0.400333 0.148697
588 1 0.600286 0.447739 0.148496
589 1 0.690799 0.399672 0.0983374
590 1 0.745802 0.448808 0.101799
591 1 0.752484 0.400763 0.149534
592 1 0.703233 0.452365 0.155002
593 1 0.800621 0.396321 0.0996655
594 1 0.854808 0.448288 0.0991952
595 1 0.853333 0.397616 0.149622
596 1 0.802664 0.444192 0.147292
597 1 0.897397 0.393868 0.099618
598 1 0.950674 0.452969 0.100449
599 1 0.953233 0.402793 0.150557
600 1 0.897531 0.448158 0.149198
601 1 0.000930234 0.503284 0.0998824
602 1 0.0449418 0.552629 0.103659
603 1 0.0490396 0.50069 0.151109
604 1 0.00127789 0.55368 0.156262
605 1 0.100132 0.502673 0.101463
606 1 0.150737 0.556041 0.0987592
607 1 0.149474 0.504774 0.150077
608 1 0.0977742 0.548318 0.148471
609 1 0.193611 0.503679 0.0991272
610 1 0.24924 0.552036 0.102976
611 1 0.245451 0.501939 0.147197
612 1 0.198468 0.549992 0.149227
613 1 0.29948 0.500349 0.0960785
614 1 0.34498 0.548289 0.0956146
615 1 0.344397 0.501231 0.151453
616 1 0.297572 0.552067 0.148678
617 1 0.396799 0.504352 0.098605
618 1 0.44991 0.546727 0.103601
619 1 0.453283 0.498594 0.15178
620 1 0.400762 0.549655 0.155087
621 1 0.497886 0.501696 0.103773
622 1 0.546169 0.55023 0.104134
623 1 0.553077 0.499271 0.156044
624 1 0.498991 0.547611 0.156899
625 1 0.601848 0.499191 0.103559
626 1 0.646748 0.552272 0.0961743
627 1 0.65079 0.496633 0.154119
628 1 0.601126 0.550494 0.154112
629 1 0.697248 0.501446 0.107741
630 1 0.751173 0.550436 0.104844
631 1 0.75351 0.499593 0.150722
632 1 0.7034 0.550951 0.153461
633 1 0.806133 0.498496 0.103172
634 1 0.853892 0.551646 0.100255
635 1 0.854891 0.502819 0.151515
636 1 0.807114 0.550484 0.146795
637 1 0.903789 0.504916 0.106402
638 1 0.951497 0.550666 0.101749
639 1 0.953913 0.499037 0.151104
640 1 0.900152 0.551042 0.155392
641 1 0.996249 0.601036 0.101061
642 1 0.0453278 0.648425 0.0990161
643 1 0.0440811 0.60498 0.153983
644 1 0.995299 0.653556 0.149724
645 1 0.0974298 0.602443 0.101889
646 1 0.150205 0.650264 0.100507
647 1 0.146432 0.601063 0.15309
648 1 0.0926433 0.651531 0.15271
649 1 0.200349 0.600209 0.10363
650 1 0.242444 0.657242 0.102985
651 1 0.246011 0.60205 0.148978
652 1 0.194627 0.647529 0.155788
653 1 0.304314 0.60535 0.100028
654 1 0.350725 0.653497 0.104894
655 1 0.348401 0.602592 0.155601
656 1 0.292232 0.652513 0.15305
657 1 0.395802 0.597763 0.102082
658 1 0.446485 0.650902 0.104823
659 1 0.447809 0.600351 0.151689
660 1 0.399494 0.654122 0.150191
661 1 0.504715 0.600735 0.101526
662 1 0.553448 0.653261 0.106119
663 1 0.551124 0.603346 0.152083
664 1 0.494108 0.648521 0.150679
665 1 0.600078 0.59532 0.098842
666 1 0.649824 0.647483 0.101287
667 1 0.649547 0.595297 0.150921
668 1 0.60166 0.653547 0.148666
669 1 0.699839 0.598641 0.102152
670 1 0.755253 0.649073 0.104443
671 1 0.752734 0.60135 0.148201
672 1 0.704106 0.64581 0.150552
673 1 0.808101 0.603966 0.103348
674 1 0.851667 0.656568 0.100596
675 1 0.853107 0.599854 0.152224
676 1 0.802671 0.645402 0.156945
677 1 0.906141 0.605322 0.100733
678 1 0.952123 0.654518 0.0921893
679 1 0.948476 0.598754 0.151379
680 1 0.899349 0.655243 0.15046
681 1 0.994963 0.699766 0.10033
682 1 0.0505396 0.751733 0.103595
683 1 0.0440833 0.698629 0.148227
684 1 0.999277 0.748446 0.15162
685 1 0.0934676 0.696211 0.0990705
686 1 0.144891 0.749285 0.103598
687 1 0.140738 0.700263 0.146481
688 1 0.0986359 0.755177 0.154515
689 1 0.192412 0.699054 0.102643
690 1 0.239733 0.753282 0.105556
691 1 0.244941 0.703435 0.155202
692 1 0.196125 0.747579 0.151961
693 1 0.295867 0.699054 0.102741
694 1 0.349981 0.755874 0.10114
695 1 0.342646 0.702999 0.151495
696 1 0.296502 0.752254 0.152785
697 1 0.395205 0.700225 0.101732
698 1 0.451107 0.744876 0.106516
699 1 0.448466 0.697211 0.149617
700 1 0.39788 0.752739 0.15743
701 1 0.499792 0.693549 0.101871
702 1 0.548651 0.758655 0.105385
703 1 0.552295 0.703793 0.147548
704 1 0.502074 0.751721 0.154349
705 1 0.602357 0.699743 0.0971243
706 1 0.648896 0.747093 0.106474
707 1 0.651635 0.697835 0.150853
708 1 0.600949 0.749685 0.148633
709 1 0.698787 0.695674 0.101995
710 1 0.74268 0.743385 0.103497
711 1 0.744749 0.70176 0.15569
712 1 0.694562 0.747606 0.154899
713 1 0.801182 0.700878 0.10209
714 1 0.846527 0.753157 0.0943821
715 1 0.848782 0.705037 0.148953
716 1 0.797206 0.745997 0.151132
717 1 0.901689 0.703945 0.102943
718 1 0.948355 0.751752 0.0972159
719 1 0.948938 0.7011 0.151555
720 1 0.901255 0.751652 0.151354
721 1 0.998506 0.797985 0.0998809
722 1 0.0480456 0.851729 0.100543
723 1 0.0462793 0.808093 0.150384
724 1 1.00028 0.856736 0.150533
725 1 0.09602 0.804348 0.0969388
726 1 0.147334 0.85269 0.104279
727 1 0.151312 0.806086 0.153019
728 1 0.0960914 0.849529 0.148405
729 1 0.194939 0.800447 0.106413
730 1 0.248931 0.848463 0.10285
731 1 0.241893 0.793779 0.154291
732 1 0.200662 0.852694 0.152243
733 1 0.295311 0.796954 0.10355
734 1 0.348348 0.849449 0.101142
735 1 0.349325 0.801409 0.151651
736 1 0.301645 0.850761 0.148539
737 1 0.401549 0.806403 0.10236
738 1 0.453503 0.854929 0.101559
739 1 0.452474 0.798815 0.15374
740 1 0.39649 0.854337 0.151012
741 1 0.498827 0.8037 0.101597
742 1 0.552309 0.846858 0.102287
743 1 0.557247 0.808323 0.155414
744 1 0.499936 0.851899 0.147194
745 1 0.600133 0.800734 0.106969
746 1 0.655072 0.848984 0.103454
747 1 0.64989 0.802298 0.155219
748 1 0.602959 0.854117 0.154646
749 1 0.70146 0.795748 0.101074
750 1 0.750342 0.846115 0.102091
751 1 0.745927 0.795419 0.152824
752 1 0.701713 0.849397 0.150965
753 1 0.793716 0.7928 0.106237
754 1 0.850047 0.843866 0.103998
755 1 0.843243 0.79318 0.154205
756 1 0.795048 0.844061 0.155871
757 1 0.901877 0.799367 0.0942825
758 1 0.951903 0.848588 0.102409
759 1 0.95091 0.799072 0.14567
760 1 0.895815 0.847681 0.154022
761 1 0.999854 0.900467 0.0983151
762 1 0.0546408 0.947017 0.0999019
763 1 0.0555198 0.902275 0.155476
764 1 0.000649598 0.948743 0.153855
765 1 0.0972134 0.898416 0.101492
766 1 0.146845 0.94815 0.103308
767 1 0.148267 0.898197 0.152604
768 1 0.102919 0.950751 0.151792
769 1 0.199252 0.903699 0.102828
770 1 0.249174 0.94833 0.100691
771 1 0.25312 0.902569 0.14856
772 1 0.200477 0.954582 0.15417
773 1 0.302336 0.901265 0.0980054
774 1 0.350053 0.957063 0.0993783
775 1 0.350593 0.900364 0.145054
776 1 0.303655 0.948637 0.144589
777 1 0.401653 0.904071 0.100458
778 1 0.450478 0.950185 0.104458
779 1 0.445763 0.904343 0.161514
780 1 0.397732 0.950567 0.154649
781 1 0.505272 0.90243 0.0972122
782 1 0.547927 0.953625 0.100647
783 1 0.552277 0.898969 0.150691
784 1 0.500466 0.946974 0.15128
785 1 0.599966 0.902558 0.103175
786 1 0.653035 0.950101 0.103961
787 1 0.652704 0.901526 0.151858
788 1 0.596856 0.953854 0.154037
789 1 0.703146 0.898541 0.101248
790 1 0.746177 0.947213 0.102842
791 1 0.748031 0.896388 0.155007
792 1 0.699259 0.947865 0.151546
793 1 0.799888 0.899409 0.102693
794 1 0.854585 0.950508 0.101228
795 1 0.850924 0.907666 0.156693
796 1 0.800118 0.953131 0.14661
797 1 0.898887 0.8935 0.104442
798 1 0.95145 0.95002 0.0974691
799 1 0.951855 0.902681 0.143985
800 1 0.898263 0.950281 0.155273
801 1 0.997816 0.996838 0.201905
802 1 0.0484933 0.055619 0.198109
803 1 0.0482108 0.999323 0.252507
804 1 0.999431 0.0509896 0.25031
805 1 0.0962636 0.00959706 0.192443
806 1 0.147561 0.0528296 0.199332
807 1 0.14421 0.0081813 0.251547
808 1 0.0992323 0.0557309 0.248971
809 1 0.194743 0.00548437 0.20503
810 1 0.24767 0.0505468 0.200529
811 1 0.25016 0.00301528 0.248742
812 1 0.200228 0.0490415 0.25193
813 1 0.302744 0.00410995 0.199325
814 1 0.351303 0.0538241 0.203365
815 1 0.349007 0.00531052 0.250915
816 1 0.299655 0.0519938 0.248871
817 1 0.399045 0.00379414 0.204385
818 1 0.450029 0.0503087 0.207118
819 1 0.448526 0.00760157 0.258645
820 1 0.397353 0.0525231 0.256152
821 1 0.50379 0.00169654 0.203938
822 1 0.550299 0.0501889 0.202105
823 1 0.54773 0.00164541 0.257648
824 1 0.500331 0.0542708 0.252631
825 1 0.60096 0.00641648 0.203972
826 1 0.651896 0.0491254 0.197028
827 1 0.651869 0.00224085 0.250457
828 1 0.5978 0.0533274 0.254256
829 1 0.704294 0.00427985 0.201025
830 1 0.75053 0.0498692 0.204871
831 1 0.756844 0.000459579 0.25183
832 1 0.695398 0.0549437 0.249725
833 1 0.804509 0.998216 0.199293
834 1 0.84944 0.0523319 0.198891
835 1 0.851455 0.99752 0.254642
836 1 0.802127 0.0547263 0.249158
837 1 0.89807 0.998266 0.203208
838 1 0.947207 0.0511777 0.201072
839 1 0.949106 0.99931 0.248618
840 1 0.899945 0.0503496 0.250797
841 1 0.996386 0.100156 0.195685
842 1 0.0536294 0.15275 0.198489
843 1 0.0513233 0.105688 0.247535
844 1 0.00172494 0.152851 0.249388
845 1 0.101473 0.103202 0.198432
846 1 0.152232 0.146844 0.205771
847 1 0.1519 0.0957502 0.253265
848 1 0.102485 0.147406 0.254427
849 1 0.201374 0.0996578 0.203914
850 1 0.256535 0.14949 0.203026
851 1 0.254957 0.101587 0.253022
852 1 0.205572 0.148025 0.253657
853 1 0.302305 0.101545 0.199156
854 1 0.349774 0.153172 0.201931
855 1 0.348265 0.103497 0.251405
856 1 0.304542 0.150951 0.25451
857 1 0.399241 0.0977367 0.20474
858 1 0.445789 0.150776 0.203661
859 1 0.446963 0.102751 0.253695
860 1 0.40076 0.149724 0.251339
861 1 0.49645 0.102294 0.203703
862 1 0.548993 0.148506 0.202631
863 1 0.550613 0.101153 0.250929
864 1 0.497552 0.150284 0.253396
865 1 0.59958 0.105201 0.203537
866 1 0.64985 0.149997 0.199665
867 1 0.646484 0.0993017 0.251051
868 1 0.60144 0.152037 0.250375
869 1 0.7053 0.102349 0.197922
870 1 0.746997 0.149279 0.198868
871 1 0.750041 0.106148 0.251117
872 1 0.69473 0.148092 0.254119
873 1 0.795862 0.103345 0.200117
874 1 0.847578 0.147621 0.198283
875 1 0.850777 0.104855 0.247541
876 1 0.796798 0.153872 0.250258
877 1 0.902944 0.101499 0.194139
878 1 0.952268 0.149965 0.194689
879 1 0.953762 0.102646 0.251409
880 1 0.90086 0.150206 0.243668
881 1 0.00578979 0.201045 0.198032
882 1 0.0558145 0.247162 0.20137
883 1 0.0495225 0.20157 0.250145
884 1 0.0019185 0.247846 0.257599
885 1 0.102701 0.198943 0.20194
886 1 0.150627 0.251799 0.195232
887 1 0.149841 0.197936 0.248322
888 1 0.104802 0.248899 0.250461
889 1 0.204344 0.198254 0.198797
890 1 0.246444 0.248822 0.20025