ITEM: TIMESTEP
29200
ITEM: NUMBER OF ATOMS
4000
ITEM: BOX BOUNDS pp pp pp
0.0000000000000000e+00 1.6795961913825074e+01
0.0000000000000000e+00 1.6795961913825074e+01
0.0000000000000000e+00 1.6795961913825074e+01
ITEM: ATOMS id type xs ys zs
1 1 0.957605 0.0440648 0.994974
2 1 0.172207 0.139162 0.941666
3 1 0.0174698 0.967764 0.958654
4 1 0.00270096 0.0768185 0.103518
5 1 0.126296 0.0212055 0.0079137
6 1 0.101058 0.0434877 0.955147
7 1 0.157797 0.0622316 0.0407765
8 1 0.00186055 0.0486958 0.040454
9 1 0.344947 0.932738 0.00985612
10 1 0.230606 0.0623444 0.0356567
11 1 0.232434 0.975061 0.103025
12 1 0.325379 0.00382105 0.960751
13 1 0.317778 0.0949496 0.00647186
14 1 0.373972 0.0850418 0.00493673
15 1 0.477848 0.101812 0.11748
16 1 0.258441 0.0305163 0.0893468
17 1 0.424241 0.882231 0.919179
18 1 0.39751 0.921365 0.034292
19 1 0.404116 0.969091 0.0789393
20 1 0.395891 0.099338 0.204688
21 1 0.49384 0.963687 0.0103963
22 1 0.461238 0.983217 0.0636708
23 1 0.485814 0.895802 0.974822
24 1 0.550075 0.0447261 0.950497
25 1 0.558318 0.911069 0.934291
26 1 0.706706 0.0666837 0.0858066
27 1 0.660127 0.97144 0.122968
28 1 0.631706 0.943796 0.0749868
29 1 0.731738 0.972289 0.992213
30 1 0.818196 0.0101523 0.928647
31 1 0.754349 0.0449264 0.0503324
32 1 0.717795 0.00977823 0.0856372
33 1 0.849741 0.936734 0.978054
34 1 0.769378 0.203787 0.992781
35 1 0.712299 0.0218146 0.0133414
36 1 0.855121 0.114367 0.94392
37 1 0.84682 0.039691 0.030456
38 1 0.876176 0.996662 0.972144
39 1 0.926809 0.932897 0.0271888
40 1 0.87407 0.958087 0.141072
41 1 0.956818 0.109029 0.971311
42 1 0.0678765 0.113563 0.978376
43 1 0.974988 0.138996 0.100516
44 1 0.0417594 0.0763063 0.162419
45 1 0.113983 0.0556173 0.0826365
46 1 0.185526 0.21432 1.00068
47 1 0.18626 0.107107 0.0625548
48 1 0.136279 0.113839 0.0997015
49 1 0.117109 0.956192 0.991562
50 1 0.256085 0.12358 0.0619482
51 1 0.331306 0.121266 0.0676416
52 1 0.0641038 0.133447 0.180336
53 1 0.293987 0.152423 0.0183668
54 1 0.436635 0.163637 0.951177
55 1 0.353835 0.0803117 0.117509
56 1 0.375934 0.158847 0.962847
57 1 0.418884 0.976216 0.0136453
58 1 0.595755 0.166324 0.980895
59 1 0.381877 0.0215655 0.994886
60 1 0.403727 0.130319 0.0764627
61 1 0.490833 0.189112 0.899312
62 1 0.56877 0.0670227 0.0213495
63 1 0.552249 0.975053 0.98731
64 1 0.435383 0.0867209 0.0372055
65 1 0.608387 0.92869 0.900591
66 1 0.628592 0.113286 0.0167004
67 1 0.481161 0.0436644 0.0533027
68 1 0.417455 0.0174526 0.127344
69 1 0.49294 0.108314 0.0558076
70 1 0.817775 0.246521 0.971126
71 1 0.733889 0.162175 0.968211
72 1 0.664034 0.153121 0.984308
73 1 0.748085 0.0907049 0.992559
74 1 0.876464 0.217126 0.904006
75 1 0.811685 0.191935 0.942842
76 1 0.78648 0.147616 0.110695
77 1 0.939639 0.0591259 0.107192
78 1 0.820509 0.183298 0.0217778
79 1 0.919444 0.152062 0.00667837
80 1 0.86348 0.134571 0.011609
81 1 0.0144277 0.0853861 0.996258
82 1 0.0792524 0.226111 0.98419
83 1 0.980371 0.170625 0.991187
84 1 0.998865 0.224773 0.0699527
85 1 0.0368075 0.182823 0.965881
86 1 0.175309 0.27109 0.946504
87 1 0.23494 0.233907 0.959697
88 1 0.140127 0.168492 0.994288
89 1 0.134898 0.252453 0.992136
90 1 0.252234 0.188258 0.0364694
91 1 0.201477 0.169152 0.0914892
92 1 0.299001 0.248309 0.0117698
93 1 0.382469 0.200143 0.878657
94 1 0.324749 0.238378 0.88915
95 1 0.440079 0.15043 0.0211577
96 1 0.305742 0.206559 0.125267
97 1 0.398226 0.105813 0.922547
98 1 0.530545 0.131042 0.0158698
99 1 0.380211 0.190002 0.0688509
100 1 0.379053 0.252024 0.0375898
101 1 0.509678 0.219434 0.108959
102 1 0.503905 0.249611 0.904167
103 1 0.646088 0.236238 0.96733
104 1 0.537335 0.322163 0.0809567
105 1 0.427027 0.097531 0.98144
106 1 0.614174 0.150809 0.898941
107 1 0.723268 0.163233 0.0844752
108 1 0.532861 0.132156 0.101177
109 1 0.671234 0.0381437 0.115243
110 1 0.709674 0.22626 0.0753585
111 1 0.770717 0.201868 0.0650474
112 1 0.711157 0.330666 0.0124742
113 1 0.872169 0.247922 0.0190954
114 1 0.751269 0.266634 0.0407923
115 1 0.976926 0.271707 0.105093
116 1 0.830732 0.207637 0.0820167
117 1 0.00592248 0.194935 0.125087
118 1 0.918813 0.128578 0.0767595
119 1 0.974912 0.194414 0.19857
120 1 0.93938 0.215226 0.0986607
121 1 0.0153917 0.348769 0.956284
122 1 0.216975 0.30204 0.00412904
123 1 0.0617263 0.230493 0.0497623
124 1 0.0580566 0.292007 0.965934
125 1 0.109218 0.264804 0.93852
126 1 0.174903 0.368239 0.992524
127 1 0.21186 0.319132 0.945984
128 1 0.113057 0.403404 0.984381
129 1 0.339879 0.288516 0.995012
130 1 0.324607 0.243075 0.951641
131 1 0.281605 0.197335 0.969359
132 1 0.320433 0.376121 0.101846
133 1 0.348276 0.208361 0.00415453
134 1 0.385252 0.385994 0.00742636
135 1 0.313048 0.339861 0.162248
136 1 0.334106 0.356717 0.0243883
137 1 0.390979 0.320824 0.0122521
138 1 0.481905 0.21438 0.029127
139 1 0.529304 0.232965 0.173376
140 1 0.426338 0.279675 0.0739905
141 1 0.532762 0.236643 0.057947
142 1 0.609419 0.404425 0.934712
143 1 0.619077 0.280514 0.0762797
144 1 0.560112 0.186423 0.191021
145 1 0.720406 0.182484 0.0305367
146 1 0.636332 0.321668 0.0235997
147 1 0.655265 0.332849 0.0949619
148 1 0.582654 0.331965 0.984155
149 1 0.691772 0.275477 0.983336
150 1 0.709764 0.328675 0.948914
151 1 0.807975 0.309793 0.0533412
152 1 0.763211 0.298691 0.99582
153 1 0.867371 0.358808 0.0406593
154 1 0.910664 0.384675 0.0722467
155 1 0.912826 0.317917 0.0123359
156 1 0.762513 0.36576 0.95219
157 1 0.972738 0.326744 0.998411
158 1 0.988225 0.382986 0.0188466
159 1 0.0161732 0.257591 0.00404844
160 1 0.942375 0.343816 0.11863
161 1 0.994758 0.438687 0.0351007
162 1 0.0559319 0.455902 0.0126873
163 1 0.0491525 0.378982 0.99267
164 1 0.0149894 0.384036 0.150846
165 1 0.234273 0.383594 0.950522
166 1 0.240942 0.494503 0.948002
167 1 0.188554 0.344778 0.0643016
168 1 0.0828515 0.514273 0.0241511
169 1 0.243462 0.364065 0.0107774
170 1 0.132781 0.379996 0.0493543
171 1 0.288833 0.307851 0.0378446
172 1 0.183959 0.470314 0.0479874
173 1 0.19825 0.407129 0.0522717
174 1 0.35721 0.430812 0.979316
175 1 0.308665 0.419125 0.0256797
176 1 0.271546 0.390761 0.0626652
177 1 0.356933 0.347105 0.965596
178 1 0.403767 0.524282 0.00491821
179 1 0.436183 0.220141 0.0660073
180 1 0.426551 0.405882 0.0495759
181 1 0.464655 0.395895 0.0970905
182 1 0.550747 0.386994 0.976997
183 1 0.488586 0.384965 0.970246
184 1 0.398932 0.465702 0.015609
185 1 0.595785 0.344208 0.920326
186 1 0.646087 0.444044 0.0444767
187 1 0.655489 0.364222 0.968204
188 1 0.614849 0.392742 0.0210354
189 1 0.701903 0.21674 0.966321
190 1 0.808801 0.463863 0.0197755
191 1 0.73647 0.407257 0.0497709
192 1 0.695893 0.494546 0.066919
193 1 0.823798 0.383576 0.976975
194 1 0.880831 0.416553 0.012082
195 1 0.83431 0.405155 0.0703237
196 1 0.789416 0.442998 0.0783487
197 1 0.96843 0.471412 0.0997292
198 1 0.00692881 0.450308 0.171875
199 1 0.963656 0.405974 0.090123
200 1 0.930974 0.434808 0.0436484
201 1 0.00850468 0.590497 0.0277676
202 1 0.0251738 0.652059 0.00874579
203 1 0.052454 0.576622 0.979394
204 1 0.977557 0.661009 0.0663367
205 1 0.0737637 0.549102 0.910652
206 1 0.108583 0.605229 0.996187
207 1 0.15164 0.524938 0.0263084
208 1 0.0945263 0.567661 0.0460632
209 1 0.117399 0.447287 0.0406478
210 1 0.295195 0.590767 0.0137165
211 1 0.221245 0.442066 0.100101
212 1 0.170251 0.577523 0.0525318
213 1 0.279872 0.527918 0.989131
214 1 0.36162 0.595053 0.897414
215 1 0.34258 0.509191 0.985268
216 1 0.306596 0.486291 0.0333973
217 1 0.373362 0.520733 0.920022
218 1 0.460547 0.551067 0.0297123
219 1 0.457428 0.497467 0.996677
220 1 0.396284 0.568118 0.054152
221 1 0.483229 0.442209 0.0295939
222 1 0.521406 0.507979 0.0174639
223 1 0.635975 0.481455 0.097461
224 1 0.478127 0.491672 0.0723178
225 1 0.641977 0.533702 0.991699
226 1 0.747444 0.475977 0.983029
227 1 0.485175 0.593209 0.0742554
228 1 0.631053 0.526217 0.0553652
229 1 0.815846 0.567776 0.981901
230 1 0.846809 0.513365 0.0309517
231 1 0.778096 0.53568 0.0181794
232 1 0.670102 0.540285 0.10083
233 1 0.85505 0.534044 0.91893
234 1 0.87822 0.552313 0.977185
235 1 0.955235 0.490555 0.0275107
236 1 0.903513 0.531547 0.0401485
237 1 0.915011 0.497743 0.0925411
238 1 0.973706 0.598699 0.0883236
239 1 0.971126 0.529146 0.0714053
240 1 0.966195 0.549414 0.132751
241 1 0.975224 0.721679 0.0844439
242 1 0.0170032 0.679522 0.942161
243 1 0.0288283 0.623958 0.0812334
244 1 0.017721 0.666918 0.142145
245 1 0.105573 0.538864 0.969776
246 1 0.182016 0.607387 0.991701
247 1 0.126001 0.620593 0.0902053
248 1 0.0838175 0.640681 0.0352957
249 1 0.221983 0.686429 0.019367
250 1 0.243661 0.730189 0.9462
251 1 0.300721 0.595154 0.950563
252 1 0.375034 0.723946 0.937992
253 1 0.346171 0.636415 0.950108
254 1 0.340117 0.558527 0.0189741
255 1 0.403405 0.594272 0.999442
256 1 0.346073 0.620207 0.0129372
257 1 0.353594 0.572871 0.963969
258 1 0.423587 0.559741 0.947955
259 1 0.390652 0.653066 0.0603795
260 1 0.423385 0.716485 0.0934767
261 1 0.482859 0.600819 0.970275
262 1 0.479612 0.661899 0.0507342
263 1 0.554436 0.588793 0.0857657
264 1 0.441 0.641226 0.0966924
265 1 0.522977 0.577729 0.026949
266 1 0.665227 0.578424 0.038353
267 1 0.610576 0.530474 0.11928
268 1 0.588861 0.657307 0.0910553
269 1 0.707038 0.519107 0.0144587
270 1 0.717206 0.644241 0.0566066
271 1 0.794365 0.590529 0.0994834
272 1 0.723433 0.582967 0.0605561
273 1 0.805304 0.580621 0.928428
274 1 0.824609 0.699806 0.0121317
275 1 0.877175 0.599037 0.031324
276 1 0.764477 0.604825 0.0258229
277 1 0.939121 0.582248 0.0393692
278 1 0.884307 0.648658 0.985281
279 1 0.975228 0.643462 0.977384
280 1 0.916194 0.638286 0.0814109
281 1 0.974856 0.786294 0.0855758
282 1 0.0439868 0.781558 0.0521177
283 1 0.029682 0.751817 0.118025
284 1 0.992376 0.762987 0.0131511
285 1 0.0521231 0.701382 0.0601964
286 1 0.150685 0.768009 0.0739959
287 1 0.167999 0.643413 0.0449212
288 1 0.0910857 0.826577 0.0659627
289 1 0.281633 0.777923 0.0582142
290 1 0.35804 0.794462 0.0270189
291 1 0.253335 0.712538 0.079018
292 1 0.3141 0.748984 0.0970963
293 1 0.370052 0.684087 0.996681
294 1 0.391734 0.784149 0.959537
295 1 0.333339 0.666028 0.0699216
296 1 0.30818 0.68952 0.130628
297 1 0.416039 0.741694 0.998383
298 1 0.344246 0.748916 0.992197
299 1 0.487273 0.754496 0.941223
300 1 0.395879 0.848362 0.973488
301 1 0.442133 0.614824 0.0395628
302 1 0.485205 0.696037 0.990661
303 1 0.633342 0.706452 0.135329
304 1 0.62017 0.780373 0.0480489
305 1 0.565547 0.710379 0.875724
306 1 0.530747 0.650406 0.954059
307 1 0.684389 0.688897 0.0984682
308 1 0.594023 0.850511 0.0878413
309 1 0.711926 0.703566 0.0241053
310 1 0.752853 0.851985 0.0203768
311 1 0.783585 0.680316 0.107827
312 1 0.643034 0.696267 0.0422572
313 1 0.776172 0.667773 0.0311942
314 1 0.834583 0.821587 0.920806
315 1 0.843689 0.714495 0.0742913
316 1 0.768162 0.719865 0.0593422
317 1 0.826944 0.757445 0.0285139
318 1 0.96236 0.697369 0.914086
319 1 0.868158 0.664545 0.0447605
320 1 0.873379 0.713215 0.96762
321 1 0.0528391 0.871912 0.98934
322 1 0.97975 0.897208 0.0481375
323 1 0.0580419 0.879657 0.0538259
324 1 0.00965995 0.842358 0.0571775
325 1 0.108551 0.769306 0.0293586
326 1 0.196006 0.80994 0.938535
327 1 0.111003 0.701694 0.040549
328 1 0.163688 0.841075 0.998775
329 1 0.100381 0.828372 0.00282224
330 1 0.296562 0.855143 0.0271097
331 1 0.301671 0.708219 0.971969
332 1 0.197118 0.9129 0.0922002
333 1 0.205134 0.947613 0.0440972
334 1 0.230877 0.799389 0.993633
335 1 0.366247 0.721351 0.0557467
336 1 0.233701 0.855402 0.134344
337 1 0.291861 0.791881 0.998113
338 1 0.489746 0.840611 0.998848
339 1 0.423977 0.805077 0.0062261
340 1 0.32839 0.892539 0.0630027
341 1 0.488656 0.817703 0.0544359
342 1 0.53385 0.903055 0.117698
343 1 0.566194 0.908957 0.0657986
344 1 0.480063 0.775069 0.99813
345 1 0.559424 0.670215 0.0181711
346 1 0.613113 0.899752 0.969917
347 1 0.592325 0.720649 0.0840784
348 1 0.70352 0.888446 0.11243
349 1 0.669118 0.720222 0.982969
350 1 0.680244 0.896202 0.0447199
351 1 0.754766 0.80138 0.106832
352 1 0.73885 0.901444 0.245672
353 1 0.744041 0.919287 0.919739
354 1 0.870486 0.912473 0.0339071
355 1 0.812088 0.889408 0.121898
356 1 0.714149 0.839506 0.0795655
357 1 0.851553 0.806891 0.983534
358 1 0.963201 0.857892 0.944324
359 1 0.902009 0.764393 0.00501206
360 1 0.851175 0.781894 0.0856119
361 1 0.118917 0.886118 0.00267798
362 1 0.0311887 0.949904 0.890459
363 1 0.13239 0.804822 0.951445
364 1 0.142469 0.950371 0.0501152
365 1 0.96902 0.919563 0.983598
366 1 0.1775 0.893837 0.0333621
367 1 0.161302 0.907738 0.965054
368 1 0.168385 0.0738369 0.151486
369 1 0.281338 0.0458907 0.00224741
370 1 0.300668 0.0631044 0.0610661
371 1 0.0521098 0.955017 0.169225
372 1 0.238751 0.997729 0.0384929
373 1 0.374322 0.905833 0.954608
374 1 0.255549 0.993883 0.981324
375 1 0.295647 0.875502 0.108906
376 1 0.34656 0.958074 0.0655048
377 1 0.436228 0.880507 0.0137144
378 1 0.498189 0.929346 0.906976
379 1 0.439134 0.792597 0.101354
380 1 0.501049 0.886621 0.0393341
381 1 0.551478 0.863667 0.964931
382 1 0.577694 0.97661 0.0576619
383 1 0.603057 0.0358117 0.0785875
384 1 0.453695 0.88666 0.156502
385 1 0.65429 0.836256 0.0567807
386 1 0.765771 0.979889 0.0516926
387 1 0.524726 0.999377 0.0970871
388 1 0.604656 0.949021 0.0134434
389 1 0.674902 0.962625 0.0234213
390 1 0.818224 0.878735 0.0503715
391 1 0.733108 0.926861 0.0311189
392 1 0.643652 0.883376 0.0959893
393 1 0.723364 0.954572 0.851412
394 1 0.912492 0.874511 0.991234
395 1 0.755263 0.857125 0.132648
396 1 0.863346 0.957784 0.921725
397 1 0.02685 0.934017 0.0711363
398 1 0.0297184 0.925845 0.0107898
399 1 0.0618074 0.986476 0.00231472
400 1 0.805368 0.941401 0.0206309
401 1 0.965572 0.114962 0.0317608
402 1 0.074717 0.0459754 0.0305461
403 1 0.0515754 0.0426753 0.103269
404 1 0.914181 0.0595021 0.164651
405 1 0.116415 0.998173 0.250742
406 1 0.198314 0.0512658 0.0907624
407 1 0.0965234 0.997685 0.154757
408 1 0.252784 0.0552926 0.164125
409 1 0.286684 0.0929 0.116167
410 1 0.211404 0.108201 0.120132
411 1 0.204342 0.0126281 0.143543
412 1 0.266164 0.92284 0.12941
413 1 0.356647 0.977629 0.131906
414 1 0.329315 0.011649 0.0208068
415 1 0.303545 0.0326777 0.138754
416 1 0.320902 0.142126 0.126817
417 1 0.377628 0.836485 0.0732816
418 1 0.482166 0.0434819 0.138573
419 1 0.529078 0.0792793 0.249321
420 1 0.357791 0.0437089 0.217964
421 1 0.416298 0.953928 0.14473
422 1 0.550471 0.0367208 0.148448
423 1 0.609565 0.851992 0.279624
424 1 0.551393 0.984446 0.188252
425 1 0.486175 0.944962 0.183209
426 1 0.606817 0.0178211 0.172604
427 1 0.783474 0.0162443 0.18463
428 1 0.584105 0.0985403 0.0846512
429 1 0.779321 0.140814 0.0417645
430 1 0.812642 0.0895536 0.0523526
431 1 0.779531 0.97975 0.125227
432 1 0.630718 0.0159202 0.239254
433 1 0.808723 0.0213973 0.0767058
434 1 0.763941 0.0500203 0.119564
435 1 0.809813 0.995103 0.990491
436 1 0.730539 0.160817 0.223069
437 1 0.896571 0.96007 0.0796767
438 1 0.843395 0.0671067 0.105839
439 1 0.883641 0.0241077 0.0870744
440 1 0.869709 0.0513034 0.220263
441 1 0.036429 0.106988 0.0601029
442 1 0.0901939 0.179541 0.0271607
443 1 0.0500338 0.167718 0.0887972
444 1 0.996257 0.131467 0.198395
445 1 0.0442156 0.0358174 0.974036
446 1 0.0837002 0.148705 0.24174
447 1 0.0370802 0.116152 0.243023
448 1 0.14294 0.0226094 0.121331
449 1 0.125184 0.119513 0.16855
450 1 0.181074 0.145684 0.162245
451 1 0.313774 0.0906557 0.174289
452 1 0.265073 0.0961701 0.234847
453 1 0.245399 0.211224 0.0948987
454 1 0.327399 0.243328 0.0696654
455 1 0.25855 0.11871 0.17384
456 1 0.229897 0.225609 0.208212
457 1 0.283688 0.177016 0.183333
458 1 0.414691 0.0744589 0.0959674
459 1 0.524406 0.113367 0.16889
460 1 0.367684 0.185369 0.130882
461 1 0.512696 0.942792 0.0625387
462 1 0.484477 0.0981998 0.299439
463 1 0.4136 0.0111391 0.24029
464 1 0.570951 0.207719 0.111323
465 1 0.52205 0.0253737 0.00895378
466 1 0.659347 0.235353 0.0306051
467 1 0.527609 0.0660752 0.0895871
468 1 0.613066 0.119019 0.251112
469 1 0.852726 0.138001 0.0852073
470 1 0.580102 0.147294 0.0507374
471 1 0.838871 0.149693 0.149481
472 1 0.649638 0.106047 0.0862832
473 1 0.782966 0.0982296 0.146963
474 1 0.931152 0.255724 0.0518265
475 1 0.898991 0.0634657 0.988002
476 1 0.882651 0.196139 0.0520513
477 1 0.830815 0.0112822 0.133772
478 1 0.0669411 0.218935 0.114384
479 1 0.961088 0.0958136 0.154057
480 1 0.909087 0.0715071 0.0462265
481 1 0.093341 0.280245 0.0882107
482 1 0.123161 0.236936 0.0513481
483 1 0.0986196 0.0589032 0.148562
484 1 0.00549322 0.252499 0.197917
485 1 0.0657086 0.108783 0.114244
486 1 0.189878 0.231103 0.0619996
487 1 0.141273 0.288275 0.300403
488 1 0.0469769 0.207213 0.176484
489 1 0.106339 0.164369 0.128951
490 1 0.214095 0.19922 0.151679
491 1 0.261857 0.154809 0.122259
492 1 0.170119 0.212882 0.114887
493 1 0.303891 0.181796 0.0695166
494 1 0.375793 0.262104 0.108608
495 1 0.328813 0.22061 0.190189
496 1 0.330785 0.276318 0.150157
497 1 0.419334 0.211374 0.00403257
498 1 0.384658 0.128034 0.143752
499 1 0.34601 0.157578 0.194558
500 1 0.455145 0.159647 0.0954136
501 1 0.44379 0.186679 0.238032
502 1 0.519903 0.175 0.147992
503 1 0.698035 0.265446 0.138769
504 1 0.443095 0.221658 0.142817
505 1 0.486808 0.0681601 0.973983
506 1 0.756156 0.251239 0.13884
507 1 0.70809 0.112911 0.196791
508 1 0.606398 0.0653569 0.133427
509 1 0.726406 0.198901 0.146272
510 1 0.602634 0.216784 0.0580374
511 1 0.757374 0.103609 0.0860834
512 1 0.623965 0.187498 0.157757
513 1 0.803224 0.210768 0.14078
514 1 0.902738 0.317243 0.0834867
515 1 0.903594 0.110034 0.132101
516 1 0.792666 0.263874 0.0934182
517 1 0.954567 0.180898 0.0541826
518 1 0.0332151 0.267153 0.139277
519 1 0.939396 0.15016 0.226424
520 1 0.849927 0.272066 0.0776968
521 1 0.0302989 0.289096 0.0724772
522 1 0.0338491 0.322496 0.0187219
523 1 0.949488 0.283185 0.278534
524 1 0.00603131 0.330723 0.111394
525 1 0.0799215 0.285624 0.0290694
526 1 0.213654 0.290705 0.074424
527 1 0.150397 0.276203 0.114759
528 1 0.155788 0.310909 0.0148847
529 1 0.241691 0.248692 0.0234167
530 1 0.273878 0.266485 0.096515
531 1 0.224753 0.256136 0.135623
532 1 0.265518 0.303013 0.149919
533 1 0.343721 0.309487 0.0644165
534 1 0.298924 0.447979 0.0839986
535 1 0.434245 0.343888 0.132937
536 1 0.275599 0.240024 0.167879
537 1 0.490374 0.273972 0.140962
538 1 0.555823 0.27561 0.112057
539 1 0.505443 0.353351 0.138297
540 1 0.420714 0.353403 0.216881
541 1 0.579669 0.273536 0.0291745
542 1 0.601815 0.244166 0.171597
543 1 0.640138 0.125279 0.18248
544 1 0.487576 0.377535 0.040832
545 1 0.652547 0.172659 0.0508808
546 1 0.58976 0.339698 0.118417
547 1 0.635653 0.299315 0.151952
548 1 0.666537 0.256673 0.191987
549 1 0.763941 0.358115 0.0125906
550 1 0.831063 0.354869 0.189873
551 1 0.686584 0.291349 0.0645628
552 1 0.75308 0.310457 0.0966669
553 1 0.961566 0.24036 0.152985
554 1 0.82417 0.338465 0.10711
555 1 0.863719 0.305034 0.137665
556 1 0.789969 0.31332 0.239219
557 1 0.960779 0.336066 0.0597689
558 1 0.913456 0.274802 0.133463
559 1 0.912822 0.20994 0.174776
560 1 0.92104 0.262579 0.195187
561 1 0.0167994 0.379375 0.0714042
562 1 0.0266671 0.480382 0.0716029
563 1 0.0183984 0.432249 0.11242
564 1 0.0768101 0.34392 0.21391
565 1 0.108401 0.477201 0.975411
566 1 0.117554 0.505813 0.0798934
567 1 0.0782964 0.378081 0.108815
568 1 0.152776 0.384967 0.11418
569 1 0.137124 0.332685 0.0901433
570 1 0.223003 0.376354 0.117321
571 1 0.279582 0.407969 0.152492
572 1 0.199912 0.318219 0.127932
573 1 0.257406 0.33133 0.0891614
574 1 0.228511 0.434356 0.986159
575 1 0.416088 0.34579 0.0687936
576 1 0.376034 0.388557 0.0900075
577 1 0.412192 0.4165 0.132406
578 1 0.478108 0.326276 0.951509
579 1 0.441497 0.354797 -0.00173684
580 1 0.324583 0.449081 0.139243
581 1 0.58971 0.44858 0.0693229
582 1 0.533907 0.440446 0.0890863
583 1 0.584646 0.339914 0.0513082
584 1 0.479911 0.445398 0.126885
585 1 0.550868 0.383401 0.0949918
586 1 0.622338 0.390055 0.0877506
587 1 0.701888 0.352993 0.135684
588 1 0.516217 0.48673 0.175196
589 1 0.715644 0.349993 0.0719701
590 1 0.738933 0.4115 0.175544
591 1 0.679442 0.382923 0.0328836
592 1 0.684591 0.409334 0.0944113
593 1 0.781423 0.368133 0.0727302
594 1 0.885525 0.367663 0.139708
595 1 0.917038 0.320711 0.181965
596 1 0.829973 0.396976 0.131384
597 1 0.954145 0.418141 0.159279
598 1 0.916671 0.439783 0.110711
599 1 0.975794 0.300838 0.161393
600 1 0.864575 0.450324 0.150858
601 1 0.00532577 0.504273 0.137698
602 1 0.0284083 0.555524 0.0773661
603 1 0.0648224 0.43982 0.161798
604 1 0.0402935 0.602821 0.133579
605 1 0.068676 0.402182 0.045004
606 1 0.170046 0.553716 0.108981
607 1 0.0871162 0.441032 0.104498
608 1 0.0631918 0.498457 0.121749
609 1 0.153064 0.452637 0.108033
610 1 0.199922 0.555296 0.158723
611 1 0.169521 0.500323 0.189364
612 1 0.201939 0.60031 0.10516
613 1 0.193539 0.495343 0.126715
614 1 0.371494 0.490819 0.111388
615 1 0.246496 0.45106 0.0466077
616 1 0.262993 0.611961 0.220959
617 1 0.260718 0.465806 0.140272
618 1 0.365989 0.508147 0.052261
619 1 0.425776 0.451016 0.0870149
620 1 0.363509 0.446207 0.0615316
621 1 0.425988 0.521808 0.0906409
622 1 0.564902 0.50357 0.0646319
623 1 0.521182 0.408208 0.148502
624 1 0.481096 0.535678 0.190199
625 1 0.546213 0.403 0.0384527
626 1 0.576504 0.469155 0.135718
627 1 0.585381 0.400609 0.145675
628 1 0.553145 0.536674 0.156773
629 1 0.688267 0.528292 0.159337
630 1 0.699103 0.593557 0.113725
631 1 0.744128 0.479453 0.106469
632 1 0.741013 0.538523 0.0989203
633 1 0.849278 0.534006 0.103042
634 1 0.897298 0.542865 0.149111
635 1 0.854229 0.469142 0.0920544
636 1 0.8003 0.468776 0.140249
637 1 0.890278 0.471989 0.0344518
638 1 0.911619 0.605993 0.14895
639 1 0.0214616 0.555831 0.170607
640 1 0.90355 0.508539 0.21106
641 1 0.0295182 0.622398 0.18805
642 1 0.0843559 0.622064 0.160279
643 1 0.125281 0.61691 0.21884
644 1 0.089733 0.764037 0.258271
645 1 0.096406 0.551144 0.125143
646 1 0.287663 0.659075 0.0162992
647 1 0.143286 0.5559 0.182926
648 1 0.160683 0.618976 0.159015
649 1 0.203276 0.527519 0.068333
650 1 0.327274 0.603644 0.0700472
651 1 0.265174 0.580256 0.133952
652 1 0.218698 0.775732 0.0544374
653 1 0.267468 0.572431 0.0692613
654 1 0.321191 0.617578 0.131185
655 1 0.403398 0.62928 0.220344
656 1 0.360953 0.575843 0.182743
657 1 0.423894 0.688343 0.0275506
658 1 0.49081 0.58708 0.152793
659 1 0.371311 0.572263 0.111308
660 1 0.460228 0.71033 0.190275
661 1 0.512266 0.541458 0.104271
662 1 0.521837 0.652011 0.0973252
663 1 0.540481 0.607704 0.192479
664 1 0.424635 0.578107 0.190114
665 1 0.579292 0.651591 0.151466
666 1 0.725679 0.647328 0.138208
667 1 0.577049 0.591016 0.142753
668 1 0.67336 0.680644 0.169141
669 1 0.616948 0.595827 0.095561
670 1 0.745633 0.588322 0.158315
671 1 0.801782 0.506981 0.0771874
672 1 0.653379 0.635201 0.126544
673 1 0.822999 0.566459 0.0464165
674 1 0.867323 0.67539 0.11099
675 1 0.85897 0.60246 0.0904948
676 1 0.805313 0.621 0.158634
677 1 0.91735 0.562216 0.0938037
678 1 0.975499 0.710781 0.17426
679 1 0.956687 0.651744 0.126775
680 1 0.00669179 0.674082 0.220994
681 1 0.00182175 0.767494 0.173665
682 1 0.0962382 0.7478 0.0874458
683 1 0.0852907 0.661726 0.210675
684 1 0.950691 0.753084 0.228397
685 1 0.0897732 0.668321 0.102795
686 1 0.143373 0.707398 0.099083
687 1 0.17444 0.714292 0.0434524
688 1 0.212294 0.669676 0.101899
689 1 0.304601 0.712418 0.0425848
690 1 0.373708 0.774235 0.0900518
691 1 0.197833 0.735725 0.107398
692 1 0.200614 0.788428 0.138113
693 1 0.400869 0.622582 0.153881
694 1 0.442035 0.753382 0.15461
695 1 0.425334 0.685758 0.147015
696 1 0.491724 0.704492 0.121247
697 1 0.509989 0.759004 0.0922498
698 1 0.489261 0.811312 0.135237
699 1 0.515514 0.651805 0.160783
700 1 0.447258 0.762507 0.240311
701 1 0.543373 0.780503 0.0431592
702 1 0.685089 0.828397 0.151502
703 1 0.624578 0.622165 0.185065
704 1 0.458072 0.752928 0.0536447
705 1 0.528826 0.706183 0.05773
706 1 0.679046 0.753232 0.0601293
707 1 0.685776 0.72011 0.230313
708 1 0.63842 0.673669 0.221039
709 1 0.674771 0.767174 0.123838
710 1 0.795555 0.751491 0.104679
711 1 0.688061 0.618609 0.176014
712 1 0.742505 0.695826 0.173578
713 1 0.818249 0.640991 0.0686338
714 1 0.89896 0.796213 0.144157
715 1 0.864556 0.63801 0.17163
716 1 0.824526 0.701286 0.14857
717 1 0.912682 0.70241 0.0781118
718 1 0.915681 0.773713 0.070738
719 1 0.945074 0.749112 0.135463
720 1 0.87654 0.732997 0.124063
721 1 0.966854 0.878671 0.166898
722 1 0.167428 0.831293 0.0610189
723 1 0.119158 0.665712 0.162654
724 1 0.0868409 0.718158 0.143191
725 1 0.0194045 0.831909 0.167368
726 1 0.288672 0.957457 0.0441081
727 1 0.065288 0.762966 0.196844
728 1 0.0244213 0.882283 0.108951
729 1 0.0197527 0.815956 0.109985
730 1 0.135438 0.949002 0.110736
731 1 0.198312 0.782417 0.203528
732 1 0.312746 0.744027 0.162797
733 1 0.361131 0.861611 0.133766
734 1 0.286216 0.824499 0.147977
735 1 0.29917 0.701966 0.200218
736 1 0.346774 0.839363 0.199485
737 1 0.483354 0.779454 0.19448
738 1 0.532759 0.872133 0.208862
739 1 0.484882 0.868849 0.103764
740 1 0.204452 0.884182 0.236438
741 1 0.556025 0.911118 0.00219565
742 1 0.576486 0.826389 0.221648
743 1 0.588645 0.85862 0.150549
744 1 0.464239 0.964058 0.237973
745 1 0.542569 0.816152 0.169924
746 1 0.70002 0.944667 0.0810693
747 1 0.647415 0.832453 0.197075
748 1 0.556361 0.703829 0.132887
749 1 0.732919 0.732384 0.119967
750 1 0.741938 0.810108 0.177506
751 1 0.815546 0.825455 0.163981
752 1 0.72579 0.890366 0.176921
753 1 0.776799 0.780009 0.0519182
754 1 0.862069 0.839173 0.0512532
755 1 0.821268 0.753787 0.215533
756 1 0.776882 0.799793 0.234322
757 1 0.968792 0.855643 0.101377
758 1 0.996307 0.927605 0.142433
759 1 0.934532 0.813221 0.197454
760 1 0.834563 0.769698 0.156828
761 1 0.959806 0.814228 0.141273
762 1 0.0505528 0.978126 0.111586
763 1 0.0767914 0.920504 0.102415
764 1 0.939086 0.998867 0.127208
765 1 0.134462 0.884108 0.0718902
766 1 0.100499 0.989431 0.0719234
767 1 0.15858 0.972167 0.17311
768 1 0.0924652 0.878704 0.218624
769 1 0.212878 0.906716 0.167141
770 1 0.196039 0.038457 0.986369
771 1 0.262621 0.909001 0.070418
772 1 0.11345 0.895971 0.150294
773 1 0.318667 0.94671 0.164999
774 1 0.301193 0.983807 0.096377
775 1 0.37021 0.978807 0.202433
776 1 0.259991 0.00824749 0.355925
777 1 0.428351 0.868297 0.0835325
778 1 0.454917 0.931067 0.0422586
779 1 0.406115 0.826132 0.151623
780 1 0.320516 0.820103 0.0867581
781 1 0.468953 0.925047 0.109502
782 1 0.559345 0.918664 0.176846
783 1 0.528382 0.931637 0.23001
784 1 0.596869 0.914753 0.122652
785 1 0.576637 0.779406 0.113707
786 1 0.655355 0.878923 0.16149
787 1 0.613453 0.794613 0.165559
788 1 0.469415 0.986447 0.126471
789 1 0.623179 0.951878 0.167295
790 1 0.765557 0.929433 0.159179
791 1 0.896385 0.855485 0.161453
792 1 0.617234 0.882771 0.331957
793 1 0.855319 0.838768 0.111276
794 1 0.652919 0.00284013 0.064595
795 1 0.924131 0.894532 0.0810832
796 1 0.767767 0.901962 0.0831101
797 1 0.946521 0.828336 0.0395708
798 1 0.997729 0.0090161 0.104767
799 1 0.937621 0.0148337 0.0686071
800 1 0.858209 0.978984 0.0339002
801 1 0.893173 0.00478585 0.179009
802 1 0.0400797 0.94419 0.241348
803 1 0.0412395 0.00795137 0.282334
804 1 0.00545934 0.985377 0.335373
805 1 0.979311 0.0393657 0.153556
806 1 0.0860718 0.079732 0.213507
807 1 0.145612 0.0345996 0.283248
808 1 0.0964303 0.00331714 0.31015
809 1 0.302483 0.891881 0.179191
810 1 0.268084 0.980627 0.150305
811 1 0.252006 0.0500065 0.297414
812 1 0.136555 0.0419658 0.19971
813 1 0.363125 0.0316221 0.157706
814 1 0.264797 0.988485 0.263869
815 1 0.485442 0.0284019 0.338392
816 1 0.279382 0.0648475 0.352296
817 1 0.4168 0.0638954 0.285657
818 1 0.37006 0.000931946 0.28414
819 1 0.620349 0.968693 0.278391
820 1 0.330043 0.0959475 0.379746
821 1 0.610512 0.883321 0.202966
822 1 0.554155 0.140578 0.235603
823 1 0.658696 0.0180138 0.345619
824 1 0.548873 0.0322652 0.356089
825 1 0.57357 0.981057 0.131252
826 1 0.731478 0.05717 0.179126
827 1 0.72705 0.961353 0.208831
828 1 0.635705 0.0737969 0.212696
829 1 0.715962 0.99016 0.155402
830 1 0.818657 0.019925 0.288998
831 1 0.845519 0.887618 0.181453
832 1 0.720316 0.0875728 0.261209
833 1 0.825731 0.932844 0.0806707
834 1 0.871701 0.979226 0.228224
835 1 0.807985 0.0279487 0.343669
836 1 0.761161 0.0447016 0.236553
837 1 0.0458993 0.888837 0.171134
838 1 0.00846114 0.0460501 0.21825
839 1 0.959634 0.946678 0.0948712
840 1 0.786761 0.0870823 0.317032
841 1 0.0770308 0.019538 0.206012
842 1 0.0619499 0.227377 0.240135
843 1 0.0492708 0.091826 0.360007
844 1 0.985331 0.092609 0.26795
845 1 0.968172 0.0348496 0.290475
846 1 0.151814 0.155252 0.219002
847 1 0.130679 0.0152679 0.369644
848 1 0.198438 0.0596375 0.264833
849 1 0.208876 0.100193 0.196532
850 1 0.268755 0.163372 0.266647
851 1 0.226817 0.0925293 0.330108
852 1 0.236831 0.156837 0.219013
853 1 0.219087 0.0255335 0.210413
854 1 0.362326 0.0268418 0.0887587
855 1 0.431009 0.146555 0.181785
856 1 0.393296 0.151417 0.235796
857 1 0.361818 0.0681539 0.275748
858 1 0.33509 0.122959 0.243583
859 1 0.556319 0.987886 0.266007
860 1 0.446022 0.115739 0.247137
861 1 0.578758 0.131801 0.148665
862 1 0.539782 0.121935 0.297405
863 1 0.474346 0.0802968 0.197389
864 1 0.496859 0.140481 0.219061
865 1 0.561082 0.0368228 0.226841
866 1 0.675288 0.0890383 0.138238
867 1 0.672991 0.0330957 0.177465
868 1 0.678299 0.131738 0.276461
869 1 0.720183 0.128163 0.131185
870 1 0.696313 0.0289195 0.233132
871 1 0.778087 0.152894 0.17472
872 1 0.770832 0.101629 0.218931
873 1 0.823075 0.0180437 0.228866
874 1 0.890758 0.177695 0.114515
875 1 0.766379 0.998671 0.386216
876 1 0.813831 0.0790969 0.256227
877 1 0.835429 0.0836635 0.169715
878 1 0.949599 0.169041 0.145534
879 1 0.0386892 0.128675 0.306056
880 1 0.819404 0.138371 0.230004
881 1 0.0562249 0.254652 0.304363
882 1 0.0237084 0.186465 0.233619
883 1 0.224609 0.158287 0.311272
884 1 0.0237099 0.276294 0.259131
885 1 0.138869 0.0938745 0.248596
886 1 0.985836 0.149176 0.275268
887 1 0.150769 0.157437 0.307433
888 1 0.127767 0.208467 0.253038
889 1 0.20236 0.124462 0.258864
890 1 0.09998 0.189566 0.194776
891 1 0.170492 0.206704 0.192651
892 1 0.124249 0.262319 0.20883
893 1 0.328621 0.191624 0.246957
894 1 0.363842 0.324468 0.11759