ITEM: TIMESTEP
56900
ITEM: NUMBER OF ATOMS
4000
ITEM: BOX BOUNDS pp pp pp
0.0000000000000000e+00 1.6795961913825074e+01
0.0000000000000000e+00 1.6795961913825074e+01
0.0000000000000000e+00 1.6795961913825074e+01
ITEM: ATOMS id type xs ys zs
1 1 0.0600998 0.52714 0.955114
2 1 0.955183 0.934254 0.928649
3 1 0.912355 0.875266 0.163799
4 1 0.677604 0.825478 0.0406484
5 1 0.113977 0.0819954 0.604986
6 1 0.545323 0.82471 0.558014
7 1 0.939404 0.752893 0.618491
8 1 0.356838 0.015921 0.338087
9 1 0.425137 0.202008 0.0462209
10 1 0.391898 0.281755 0.650502
11 1 0.320071 0.767457 0.0799194
12 1 0.356299 0.779539 0.880841
13 1 0.340948 0.0140644 0.19447
14 1 0.491655 0.733094 0.810894
15 1 0.630581 0.181055 0.178282
16 1 0.293133 0.679281 0.0434745
17 1 0.784867 0.345281 0.695514
18 1 0.39945 0.851895 0.653582
19 1 0.74062 1.00002 0.442582
20 1 0.63373 0.0662581 0.896644
21 1 0.644358 0.837551 0.229827
22 1 0.749077 0.196736 0.925161
23 1 0.668274 0.243161 0.835869
24 1 0.676272 0.874425 0.941624
25 1 0.893198 0.964738 0.0119449
26 1 0.705207 0.337057 0.105735
27 1 0.0671826 0.0396549 0.155318
28 1 0.454382 0.861863 0.887624
29 1 0.206881 0.731221 0.163622
30 1 0.809652 0.689845 0.813362
31 1 0.0277718 0.0126136 0.119696
32 1 0.274649 0.00158981 0.119602
33 1 0.0512533 0.924624 0.0675892
34 1 0.797133 0.113665 0.199388
35 1 0.237503 0.801071 0.33383
36 1 0.00511572 0.109864 0.763385
37 1 0.610064 0.689731 0.0148179
38 1 0.538257 0.871781 0.166299
39 1 0.0569336 0.0769223 0.710275
40 1 0.956511 0.878765 0.288293
41 1 0.902511 0.153016 0.767852
42 1 0.892045 0.0430409 0.420573
43 1 0.834379 0.276781 0.32439
44 1 0.22967 0.728381 0.372767
45 1 0.937558 0.0218405 0.836809
46 1 0.680457 0.328634 0.0531932
47 1 0.507368 0.721525 0.221784
48 1 0.239502 0.410347 0.17834
49 1 0.211198 0.323938 0.598133
50 1 0.569568 0.799312 0.262314
51 1 0.541136 0.866198 0.339978
52 1 0.288186 0.109279 0.941066
53 1 0.358751 0.205491 0.08683
54 1 0.175312 0.780273 0.866449
55 1 0.711893 0.377857 0.240107
56 1 0.501973 0.13862 0.0786791
57 1 0.387668 0.40185 0.287641
58 1 0.631846 0.153596 0.0621248
59 1 0.126495 0.221789 0.372028
60 1 0.367262 0.350641 0.255642
61 1 0.455098 0.412464 0.997891
62 1 0.242715 0.231091 0.0479279
63 1 0.365043 0.11673 0.084023
64 1 0.446158 0.186055 0.534742
65 1 0.577129 0.328997 0.0150063
66 1 0.605631 0.639684 0.262354
67 1 0.25637 0.476566 0.174702
68 1 0.949451 0.556094 0.0709967
69 1 0.423942 0.224768 0.939223
70 1 0.790479 0.135643 0.761458
71 1 0.797224 0.215568 0.268152
72 1 0.37406 0.16654 0.0410079
73 1 0.810417 0.185876 0.926442
74 1 0.114408 0.769424 0.119387
75 1 0.65244 0.716287 0.898897
76 1 0.798696 0.941308 0.150972
77 1 0.69364 0.168987 0.0742389
78 1 0.0340658 0.79008 0.460528
79 1 0.664979 0.914939 0.981828
80 1 0.384631 0.368673 0.0681793
81 1 0.0723015 0.150385 0.88646
82 1 0.966588 0.793503 0.847388
83 1 0.986907 0.90348 0.42531
84 1 0.495691 0.353208 0.160362
85 1 0.838019 0.119171 0.606973
86 1 0.0217677 0.315029 0.932317
87 1 0.626592 0.279165 0.683498
88 1 0.120971 0.917278 0.702797
89 1 0.489671 0.901526 0.277997
90 1 0.251413 0.108763 0.896485
91 1 0.0146058 0.343054 0.742381
92 1 0.23676 0.713458 0.0894464
93 1 0.340631 0.167356 0.794009
94 1 0.000325985 0.901514 0.855011
95 1 0.359274 0.54611 0.710671
96 1 0.441871 0.257888 0.0529512
97 1 0.26654 0.345658 0.178682
98 1 0.693978 0.773894 0.240509
99 1 0.332848 0.082903 0.337587
100 1 0.701427 0.183622 0.789342
101 1 0.789116 0.385402 0.469069
102 1 0.270183 0.870734 0.454709
103 1 0.831395 0.421535 0.0726436
104 1 0.512199 0.155032 0.139882
105 1 0.0134462 0.982317 0.891426
106 1 0.714929 0.244296 0.674643
107 1 0.628765 0.539881 0.430968
108 1 0.886518 0.117982 0.980394
109 1 0.0864551 0.856777 0.55777
110 1 0.668516 0.142036 0.963221
111 1 0.583342 0.781768 0.705808
112 1 0.384184 0.263771 0.0583941
113 1 0.386258 0.0970126 0.00992137
114 1 0.823688 0.647833 0.42658
115 1 0.445091 0.234961 0.360808
116 1 0.395934 0.751611 0.463803
117 1 0.276969 0.959121 0.270864
118 1 0.406151 0.0747063 0.371602
119 1 0.996782 0.165419 0.296137
120 1 0.680076 0.292475 0.920922
121 1 0.41059 0.500757 0.704911
122 1 0.157239 0.963573 0.908282
123 1 0.121281 0.370294 0.088489
124 1 0.25132 0.671224 0.846785
125 1 0.240472 0.404544 0.0322707
126 1 0.35399 0.333742 0.326592
127 1 0.966907 0.924964 0.657788
128 1 0.115954 0.539261 0.829083
129 1 0.601432 0.23087 0.453975
130 1 0.875672 0.505034 0.214254
131 1 0.951132 0.364495 0.613596
132 1 0.396241 0.403142 0.0151568
133 1 0.957702 0.0441265 0.738949
134 1 0.0970182 0.670435 0.782558
135 1 0.390318 0.460479 0.0763131
136 1 0.235154 0.0125809 0.614872
137 1 0.518688 0.153093 0.909943
138 1 0.294935 0.00189508 0.904658
139 1 0.79329 0.511125 0.205791
140 1 0.00897731 0.169259 0.538648
141 1 0.227196 0.0101783 0.47023
142 1 0.308645 0.283625 0.964507
143 1 0.294887 0.283229 0.127762
144 1 0.623389 0.999564 0.461745
145 1 0.952465 0.37019 0.679855
146 1 0.69651 0.643467 0.0854221
147 1 0.2365 0.43615 0.98744
148 1 0.395915 0.35083 0.833916
149 1 0.179503 0.236273 0.188324
150 1 0.951645 0.418087 0.0152547
151 1 0.144715 0.184508 0.122857
152 1 0.954108 0.584964 0.75508
153 1 0.896376 0.896576 0.368492
154 1 0.416154 0.317201 0.87586
155 1 0.773251 0.428107 0.520139
156 1 0.850019 0.30218 0.971928
157 1 0.875673 0.320681 0.0285321
158 1 0.12906 0.219308 0.557937
159 1 0.620498 0.269249 0.915639
160 1 0.782527 0.714839 0.166721
161 1 0.994375 0.222058 0.0661183
162 1 0.839554 0.223465 0.0262665
163 1 0.137681 0.345668 0.292156
164 1 0.109553 0.629037 0.933473
165 1 0.989837 0.543213 0.795917
166 1 0.474042 0.810669 0.106513
167 1 0.184669 0.201021 0.377893
168 1 0.023252 0.872763 0.555562
169 1 0.421627 0.754752 0.914116
170 1 0.195703 0.687186 0.392887
171 1 0.352288 0.529326 0.359002
172 1 0.191029 0.394787 0.340786
173 1 0.229959 0.435885 0.119485
174 1 0.867324 0.630974 0.150255
175 1 0.268399 0.39578 0.524891
176 1 0.279239 0.0396248 0.813934
177 1 0.343718 0.591195 0.926812
178 1 0.672665 0.535983 0.208966
179 1 0.566176 0.280878 0.823248
180 1 0.0928968 0.274612 0.117976
181 1 0.380312 0.526079 0.229611
182 1 0.778081 0.230578 0.707231
183 1 0.280914 0.631585 0.166174
184 1 0.461987 0.591337 0.770602
185 1 0.692102 0.85463 0.675767
186 1 0.0132673 0.27915 0.150153
187 1 0.363276 0.497719 0.595696
188 1 0.167116 0.306128 0.00865795
189 1 0.779604 0.232619 0.787725
190 1 0.338154 0.182381 0.955856
191 1 0.744439 0.27014 0.263775
192 1 0.900614 0.570007 0.162695
193 1 0.421603 0.962746 0.119488
194 1 0.832074 0.432624 0.00933799
195 1 0.979646 0.56244 0.658568
196 1 0.885088 0.256916 0.0201904
197 1 0.641904 0.356552 0.105668
198 1 0.296459 0.551335 0.0206903
199 1 0.090309 0.226157 0.453417
200 1 0.655257 0.5983 0.582082
201 1 0.0110872 0.382073 0.0305091
202 1 0.283291 0.597393 0.913587
203 1 0.0533098 0.432067 0.955138
204 1 0.12077 0.411245 0.0496143
205 1 0.325744 0.768943 0.481638
206 1 0.4918 0.436655 0.0933699
207 1 0.90505 0.688887 0.0522281
208 1 0.172875 0.878303 0.9256
209 1 0.100345 0.0141526 0.403764
210 1 0.402555 0.882949 0.212517
211 1 0.207044 0.270943 0.0793727
212 1 0.146655 0.953663 0.0353626
213 1 0.926211 0.987888 0.897601
214 1 0.765563 0.605541 0.965579
215 1 0.135535 0.351557 0.821193
216 1 0.123194 0.540886 0.0512299
217 1 0.272874 0.571149 0.298881
218 1 0.395862 0.674303 0.243668
219 1 0.469124 0.0112987 0.156118
220 1 0.225868 0.791323 0.402309
221 1 0.52349 0.570431 0.997634
222 1 0.353716 0.654142 0.0301134
223 1 0.681502 0.607072 0.372458
224 1 0.43523 0.629652 0.583785
225 1 0.563663 0.754848 0.921044
226 1 0.602844 0.0827314 0.777793
227 1 0.232654 0.919974 0.157015
228 1 0.245581 0.434655 0.24371
229 1 0.423159 0.450215 0.928035
230 1 0.127998 0.688531 0.0290626
231 1 0.0158394 0.487478 0.847285
232 1 0.185173 0.339713 0.165321
233 1 0.794958 0.877813 0.149371
234 1 0.974954 0.507549 0.19212
235 1 0.0578828 0.393726 0.0659604
236 1 0.66316 0.408173 0.834834
237 1 0.8148 0.156119 0.326242
238 1 0.371454 0.0498518 0.828162
239 1 0.777488 0.432393 0.844009
240 1 0.817204 0.255316 0.217924
241 1 0.827624 0.972769 0.201886
242 1 0.335056 0.958189 0.869336
243 1 0.347071 0.91777 0.638767
244 1 0.305266 0.815941 0.979489
245 1 0.991773 0.802671 0.0291237
246 1 0.990618 0.823384 0.966746
247 1 0.216638 0.738236 0.884646
248 1 0.946136 0.860052 0.945608
249 1 0.238076 0.999299 0.288593
250 1 0.994927 0.545453 0.858308
251 1 0.539884 0.75402 0.777427
252 1 0.967817 0.949839 0.87193
253 1 0.392475 0.850851 0.440398
254 1 0.224259 0.274808 0.878242
255 1 0.376177 0.380813 0.419542
256 1 0.400914 0.62548 0.200356
257 1 0.499591 0.39506 0.0487324
258 1 0.0235084 0.506338 0.610397
259 1 0.399401 0.740546 0.0217365
260 1 0.147752 0.487493 0.617293
261 1 0.573782 0.018293 0.0380764
262 1 0.691468 0.439083 0.265102
263 1 0.215566 0.628966 0.375074
264 1 0.397798 0.440509 0.133252
265 1 0.533166 0.345085 0.96687
266 1 0.31676 0.6185 0.793702
267 1 0.566517 0.463897 0.0323426
268 1 0.976079 0.205533 0.134742
269 1 0.25396 0.80972 0.949061
270 1 0.154057 0.0730714 0.0461894
271 1 0.0243578 0.283423 0.306654
272 1 0.14072 0.489518 0.876125
273 1 0.00804383 0.489127 0.79066
274 1 0.612741 0.0129667 0.975496
275 1 0.077227 0.403995 0.63607
276 1 0.85432 0.187735 0.295585
277 1 0.88091 0.511878 0.0170792
278 1 0.800112 0.526498 0.776212
279 1 0.573601 0.651257 0.446301
280 1 0.214744 0.909574 0.896651
281 1 0.0149867 0.769397 0.323595
282 1 0.219627 0.339285 0.845714
283 1 0.734848 0.726451 0.0209654
284 1 0.887177 0.936491 0.405587
285 1 0.0140155 0.708505 0.50808
286 1 0.0780878 0.19542 0.260468
287 1 0.452776 0.193857 0.981465
288 1 0.0118467 0.45301 0.574771
289 1 0.840198 0.895589 0.188007
290 1 0.555296 0.0651299 0.626159
291 1 0.180423 0.869074 0.492201
292 1 0.490599 0.0182189 0.292408
293 1 0.285011 0.646603 0.37356
294 1 0.524643 0.895016 0.0593654
295 1 0.571587 0.513519 0.27852
296 1 0.355233 0.95329 0.168134
297 1 0.754733 0.469091 0.171756
298 1 0.348906 0.753768 0.282607
299 1 0.379004 0.828734 0.287703
300 1 0.951944 0.444312 0.725235
301 1 0.424505 0.643428 0.64679
302 1 0.688392 0.455004 0.210122
303 1 0.93407 0.772269 0.198904
304 1 0.731995 0.96828 0.715542
305 1 0.260614 0.371947 0.880855
306 1 0.499625 0.725265 0.478376
307 1 0.87353 0.228914 0.950005
308 1 0.625131 0.799299 0.0221186
309 1 0.0772077 0.646814 0.85478
310 1 0.849127 0.157716 0.808561
311 1 0.243257 0.753349 0.577778
312 1 0.592536 0.54897 0.15223
313 1 0.947033 0.674063 0.940334
314 1 0.905255 0.876996 0.731502
315 1 0.396257 0.11783 0.423065
316 1 0.768486 0.620144 0.432026
317 1 0.638877 0.808124 0.742225
318 1 0.514528 0.938285 0.816852
319 1 0.0039268 0.432954 0.0559996
320 1 0.338783 0.896067 0.98204
321 1 0.131164 0.776928 0.416336
322 1 0.6538 0.741803 0.0157207
323 1 0.421049 0.501748 0.422477
324 1 0.0236207 0.919803 0.193205
325 1 0.16556 0.571659 0.143752
326 1 0.0765299 0.0777088 0.781966
327 1 0.143146 0.847784 0.788574
328 1 0.14326 0.646016 0.23589
329 1 0.800889 0.556812 0.834602
330 1 0.925715 0.321919 0.197545
331 1 0.382493 0.889778 0.903759
332 1 0.345287 0.285181 0.902451
333 1 0.189153 0.989492 0.703505
334 1 0.820856 0.724849 0.536275
335 1 0.739215 0.92259 0.13713
336 1 0.0300674 0.791366 0.930397
337 1 0.781821 0.732064 0.859102
338 1 0.221251 0.0879042 0.0783833
339 1 0.481791 0.539402 0.664147
340 1 0.0977876 0.990226 0.200507
341 1 0.462929 0.682766 0.246857
342 1 0.558932 0.882082 0.949275
343 1 0.590278 0.901068 0.0201887
344 1 0.860532 0.198382 0.720371
345 1 0.826528 0.573796 0.998633
346 1 0.495187 0.493046 0.125103
347 1 0.683786 0.179244 0.919827
348 1 0.629168 0.0875412 0.379196
349 1 0.310816 0.500355 0.448303
350 1 0.682974 0.69577 0.0425857
351 1 0.65019 0.702899 0.148966
352 1 0.890581 0.944882 0.524024
353 1 0.213375 0.822808 0.71591
354 1 0.603322 0.729578 0.870112
355 1 0.861247 0.628822 0.0134745
356 1 0.795251 0.423004 0.353201
357 1 0.352643 0.17542 0.245188
358 1 0.906474 0.980041 0.750006
359 1 0.154618 0.686349 0.178079
360 1 0.925774 0.169269 0.107533
361 1 0.341702 0.679815 0.277655
362 1 0.214665 0.372101 0.752774
363 1 0.891613 0.843946 0.920075
364 1 0.640567 0.0746495 0.140003
365 1 0.0421804 0.857086 0.166621
366 1 0.283067 0.973857 0.753622
367 1 0.191268 0.106787 0.206577
368 1 0.0665858 0.236778 0.579965
369 1 0.363583 0.0463196 0.0414082
370 1 0.0363024 0.529992 0.667398
371 1 0.290808 0.906173 0.00945439
372 1 0.134718 0.499349 0.774833
373 1 0.726364 0.690653 0.815061
374 1 0.75766 0.82841 0.405131
375 1 0.378929 0.568437 0.0907831
376 1 0.860651 0.982221 0.378954
377 1 0.43914 0.750712 0.770434
378 1 0.548752 0.821923 0.949068
379 1 0.467156 0.290125 0.34947
380 1 0.293028 0.816601 0.207952
381 1 0.805752 0.836516 0.0489709
382 1 0.606864 0.0509412 0.425197
383 1 0.987544 0.962563 0.455361
384 1 0.683598 0.935689 0.762037
385 1 0.825225 0.0189192 0.974055
386 1 0.39654 0.383475 0.136661
387 1 0.438731 0.0390901 0.738854
388 1 0.380285 0.205993 0.353269
389 1 0.0584276 0.0896445 0.888351
390 1 0.613526 0.371078 0.973647
391 1 0.364319 0.829598 0.990432
392 1 0.241916 0.991799 0.680509
393 1 0.243712 0.685957 0.174359
394 1 0.803091 0.44772 0.784874
395 1 0.404128 0.556586 0.339487
396 1 0.0101593 0.399346 0.912778
397 1 0.218848 0.598971 0.730477
398 1 0.191207 0.809595 0.49277
399 1 0.388236 0.0616455 0.310072
400 1 0.749163 0.148264 0.176049
401 1 0.855706 0.987694 0.707918
402 1 0.427275 0.0640483 0.681735
403 1 0.418815 0.513825 0.0668567
404 1 0.811222 0.128228 0.119104
405 1 0.481292 0.967662 0.386765
406 1 0.802057 0.191014 0.157341
407 1 0.252419 0.895994 0.265852
408 1 0.404433 0.948954 0.391718
409 1 0.112451 0.2272 0.0903149
410 1 0.0863948 0.520763 0.0979875
411 1 0.0904571 0.064993 0.383463
412 1 0.47298 0.133501 0.248204
413 1 0.301378 0.909026 0.914746
414 1 0.280585 0.922393 0.856722
415 1 0.72333 0.634746 0.330744
416 1 0.422958 0.0391583 0.122205
417 1 0.772425 0.469805 0.0696107
418 1 0.481013 0.454811 0.183717
419 1 0.660113 0.0369391 0.362846
420 1 0.189967 0.387239 0.815408
421 1 0.561215 0.227991 0.028833
422 1 0.481623 0.0328887 0.361548
423 1 0.839928 0.484569 0.0668081
424 1 0.606936 0.0182287 0.332243
425 1 0.212221 0.192746 0.16257
426 1 0.643727 0.014794 0.175871
427 1 0.705945 0.724024 0.388126
428 1 0.193842 0.0835132 0.867837
429 1 0.81742 0.764476 0.0733021
430 1 0.428435 0.231167 0.109125
431 1 0.758787 0.723235 0.0888104
432 1 0.456955 0.308679 0.772961
433 1 0.814691 0.00351202 0.853487
434 1 0.011105 0.0343168 0.924841
435 1 0.68955 0.13061 0.282554
436 1 0.120204 0.110054 0.218294
437 1 0.351821 0.091842 0.952454
438 1 0.557583 0.39931 0.0115202
439 1 0.136643 0.645455 0.876304
440 1 0.413542 0.90281 0.330654
441 1 0.886833 0.0934355 0.255391
442 1 0.188231 0.147083 0.136135
443 1 0.783924 0.372687 0.0738791
444 1 0.145099 0.204827 0.299759
445 1 0.886688 0.139281 0.68755
446 1 0.134719 0.196307 0.878643
447 1 0.766148 0.219804 0.584777
448 1 0.522786 0.066432 0.904031
449 1 0.984594 0.0401603 0.0284841
450 1 0.229121 0.891514 0.415494
451 1 0.868635 0.825994 0.736727
452 1 0.530447 0.819226 0.222787
453 1 0.124184 0.231877 0.931822
454 1 0.15058 0.981456 0.848983
455 1 0.300117 0.66188 0.315794
456 1 0.592007 0.779683 0.837721
457 1 0.158971 0.959814 0.239363
458 1 0.417059 0.310056 0.0853781
459 1 0.910569 0.160271 0.29701
460 1 0.138202 0.529805 0.570717
461 1 0.265702 0.855599 0.559068
462 1 0.122505 0.0235657 0.916002
463 1 0.347818 0.884521 0.783894
464 1 0.722195 0.689553 0.300563
465 1 0.872705 0.932498 0.725984
466 1 0.746474 0.37697 0.989421
467 1 0.739811 0.899384 0.908557
468 1 0.347835 0.166501 0.46383
469 1 0.109725 0.280034 0.223034
470 1 0.67644 0.260727 0.556083
471 1 0.965417 0.401248 0.148151
472 1 0.136459 0.243535 0.258258
473 1 0.0607238 0.0775713 0.645646
474 1 0.227716 0.283132 0.653267
475 1 0.696042 0.154672 0.453374
476 1 0.824971 0.837603 0.946101
477 1 0.760998 0.924989 0.272798
478 1 0.429101 0.294578 0.224823
479 1 0.819773 0.349157 0.759468
480 1 0.548284 0.690657 0.163555
481 1 0.371034 0.415246 0.885544
482 1 0.808132 0.898923 0.79392
483 1 0.357891 0.0382669 0.984858
484 1 0.00183848 0.214411 0.232022
485 1 0.074231 0.341604 0.255118
486 1 0.109319 0.541486 0.168081
487 1 0.133561 0.474679 0.0252957
488 1 0.00149462 0.0459109 0.868593
489 1 0.997235 0.304986 0.881767
490 1 0.104056 0.284837 0.592466
491 1 0.542026 0.978274 0.776582
492 1 0.242687 0.500861 0.00677524
493 1 0.202225 0.120768 0.458339
494 1 0.468789 0.823587 0.624222
495 1 0.354855 0.038763 0.260578
496 1 0.492827 0.636282 0.795826
497 1 0.0439237 0.915909 0.899334
498 1 0.295208 0.156751 0.343331
499 1 0.0611053 0.079097 0.0399004
500 1 0.352894 0.879942 0.842058
501 1 0.679291 0.103762 0.101214
502 1 0.33467 0.241017 0.24222
503 1 0.455141 0.624293 0.164269
504 1 0.509392 0.747872 0.0545
505 1 0.793528 0.735572 0.593327
506 1 0.287387 0.353549 0.351058
507 1 0.0703213 0.232826 0.205921
508 1 0.480083 0.209454 0.749562
509 1 0.57193 0.282409 0.0583196
510 1 0.0784002 0.857912 0.0775268
511 1 0.94641 0.00501878 0.141051
512 1 0.542335 0.681034 0.274482
513 1 0.569506 0.15581 0.182925
514 1 0.942038 0.751769 0.0450325
515 1 0.202484 0.838553 0.193544
516 1 0.771434 0.295973 0.216979
517 1 0.771919 0.953457 0.825736
518 1 0.887035 0.784203 0.547953
519 1 0.0568935 0.289798 0.437506
520 1 0.170028 0.883138 0.43123
521 1 0.617403 0.316742 0.96793
522 1 0.376212 0.46688 0.332431
523 1 0.708735 0.0162884 0.989202
524 1 0.29377 0.414267 0.00500237
525 1 0.0363756 0.685434 0.937507
526 1 0.616968 0.12114 0.941415
527 1 0.0237539 0.777922 0.876102
528 1 0.327615 0.339231 0.617337
529 1 0.742761 0.410285 0.095235
530 1 0.218365 0.524044 0.185321
531 1 0.0233263 0.238787 0.00781233
532 1 0.1666 0.253464 0.85902
533 1 0.347688 0.444715 0.561864
534 1 0.794101 0.90129 0.677991
535 1 0.246292 0.696076 0.318554
536 1 0.305813 0.462714 0.38365
537 1 0.361628 0.241961 0.781182
538 1 0.671833 0.309589 0.986417
539 1 0.0955945 0.861119 0.323659
540 1 0.470894 0.344935 0.234401
541 1 0.524976 0.433679 0.142868
542 1 0.444865 0.682211 0.179667
543 1 0.599471 0.0971476 0.463407
544 1 0.167728 0.38464 0.0283479
545 1 0.303442 0.399708 0.288188
546 1 0.329201 0.608138 0.671422
547 1 0.552045 0.517076 0.924405
548 1 0.735894 0.0478163 0.0347517
549 1 0.87102 0.938807 0.0743695
550 1 0.838094 0.287752 0.171195
551 1 0.0179691 0.396297 0.599867
552 1 0.16161 0.139559 0.857377
553 1 0.796915 0.131811 0.267375
554 1 0.781854 0.53394 0.516024
555 1 0.011003 0.506934 0.998508
556 1 0.0788439 0.178251 0.678346
557 1 0.207838 0.385805 0.923771
558 1 0.839222 0.187438 0.0972487
559 1 0.977802 0.978461 0.0563986
560 1 0.824281 0.296525 0.260417
561 1 0.737453 0.106818 0.472178
562 1 0.0660152 0.290285 0.17773
563 1 0.21349 0.427665 0.863543
564 1 0.466318 0.070713 0.234294
565 1 0.902187 0.931334 0.964974
566 1 0.781711 0.796788 0.247636
567 1 0.447514 0.262089 0.462276
568 1 0.824705 0.542255 0.367719
569 1 0.917436 0.354358 0.854231
570 1 0.176897 0.399174 0.255304
571 1 0.0454013 0.719247 0.890007
572 1 0.366126 0.479649 0.0212671
573 1 0.294064 0.641731 0.642236
574 1 0.179461 0.164485 0.505415
575 1 0.374734 0.392899 0.686616
576 1 0.23974 0.88652 0.101603
577 1 0.0340168 0.328234 0.0339532
578 1 0.425429 0.214073 0.766488
579 1 0.653618 0.584171 0.937214
580 1 0.602959 0.786681 0.959766
581 1 0.459676 0.628077 0.906064
582 1 0.65048 0.493732 0.120521
583 1 0.435172 0.378887 0.881303
584 1 0.0722198 0.399673 0.00779223
585 1 0.314407 0.415968 0.783244
586 1 0.0486774 0.382107 0.879475
587 1 0.0172426 0.867726 0.299547
588 1 0.19867 0.154675 0.0667885
589 1 0.636805 0.565247 0.636578
590 1 0.849782 0.326293 0.910559
591 1 0.00165598 0.262018 0.949084
592 1 0.561384 0.688843 0.976802
593 1 0.603589 0.36769 0.39463
594 1 0.962043 0.2983 0.304828
595 1 0.473998 0.244599 0.95368
596 1 0.963283 0.268159 0.173819
597 1 0.0211385 0.631754 0.963545
598 1 0.0478745 0.811127 0.208617
599 1 0.846213 0.139549 0.931963
600 1 0.689767 0.791887 0.665376
601 1 0.0840807 0.321152 0.0790913
602 1 0.283475 0.267838 0.315671
603 1 0.0905335 0.947873 0.426403
604 1 0.433935 0.937427 0.27233
605 1 0.180057 0.894248 0.0808003
606 1 0.707514 0.599517 0.847999
607 1 0.197276 0.695691 0.846414
608 1 0.31161 0.174691 0.850128
609 1 0.823803 0.740013 0.134565
610 1 0.903008 0.442928 0.181331
611 1 0.351445 0.796632 0.223793
612 1 0.240281 0.800015 0.167071
613 1 0.407462 0.282777 0.141945
614 1 0.0619587 0.453897 0.0600729
615 1 0.310507 0.0886981 0.00295671
616 1 0.157608 0.720172 0.22355
617 1 0.673526 0.347832 0.792488
618 1 0.268892 0.4677 0.791393
619 1 0.186855 0.740138 0.425103
620 1 0.112824 0.044339 0.313741
621 1 0.66972 0.648871 0.144546
622 1 0.635649 0.210617 0.398457
623 1 0.914206 0.589609 0.0299183
624 1 0.599624 0.22652 0.646195
625 1 0.980318 0.696162 0.726131
626 1 0.119165 0.343194 0.0222696
627 1 0.617798 0.272444 0.840935
628 1 0.121986 0.408913 0.226807
629 1 0.837911 0.883922 0.26275
630 1 0.525227 0.815034 0.319027
631 1 0.878993 0.767521 0.161213
632 1 0.0316191 0.497495 0.0905284
633 1 0.0725766 0.417308 0.398824
634 1 0.69816 0.442571 0.0563358
635 1 0.116418 0.399525 0.161428
636 1 0.815866 0.66275 0.15617
637 1 0.695389 0.0933881 0.177163
638 1 0.555081 0.628412 0.996735
639 1 0.816789 0.0390611 0.0403395
640 1 0.150447 0.52048 0.119223
641 1 0.529536 0.776557 0.844096
642 1 0.585846 0.784254 0.207356
643 1 0.554863 0.652225 0.93123
644 1 0.186611 0.431026 0.0658002
645 1 0.0295621 0.090997 0.494868
646 1 0.379433 0.678012 0.455471
647 1 0.617044 0.892281 0.268149
648 1 0.0617748 0.913705 0.31149
649 1 0.0940998 0.053229 0.213493
650 1 0.0367297 0.0987274 0.9889
651 1 0.116982 0.885442 0.956758
652 1 0.976588 0.876598 0.183384
653 1 0.694918 0.516022 0.727988
654 1 0.86131 0.0982287 0.419171
655 1 0.251584 0.523556 0.23204
656 1 0.32806 0.450781 0.623336
657 1 0.429132 0.903712 0.0753478
658 1 0.754846 0.588566 0.381232
659 1 0.588961 0.231206 0.781696
660 1 0.512225 0.849191 0.00548517
661 1 0.199075 0.365355 0.528097
662 1 0.836339 0.636543 0.248359
663 1 0.641995 0.968179 0.342649
664 1 0.344483 0.596091 0.0207156
665 1 0.570082 0.45288 0.31299
666 1 0.0114906 0.758356 0.218851
667 1 0.443739 0.494565 0.355948
668 1 0.0741249 0.63667 0.124967
669 1 0.583391 0.392545 0.676576
670 1 0.643835 0.488679 0.672199
671 1 0.67118 0.383018 0.0627058
672 1 0.929635 0.252958 0.845489
673 1 0.881453 0.682839 0.333339
674 1 0.205227 0.767269 0.212828
675 1 0.28686 0.145482 0.808377
676 1 0.105991 0.0744083 0.444688
677 1 0.528386 0.74693 0.00358294
678 1 0.836737 0.517705 0.952124
679 1 0.0488215 0.976304 0.167998
680 1 0.972557 0.510349 0.115342
681 1 0.290144 0.110439 0.37646
682 1 0.843291 0.791708 0.913439
683 1 0.365671 0.00592504 0.887194
684 1 0.686054 0.89582 0.0858052
685 1 0.156609 0.828649 0.968052
686 1 0.24111 0.574554 0.445506
687 1 0.829277 0.774037 0.568479
688 1 0.353864 0.956552 0.931335
689 1 0.161513 0.29693 0.902198
690 1 0.31997 0.964516 0.213974
691 1 0.656232 0.0874744 0.441993
692 1 0.834991 0.870683 0.0919273
693 1 0.544902 0.673741 0.0427111
694 1 0.709684 0.789874 0.103331
695 1 0.15143 0.364948 0.641968
696 1 0.342105 0.220414 0.570136
697 1 0.722974 0.382801 0.0398435
698 1 0.221813 0.529741 0.803249
699 1 0.536438 0.839876 0.115484
700 1 0.747127 0.414399 0.303405
701 1 0.455247 0.177089 0.143586
702 1 0.802598 0.913654 0.93584
703 1 0.451988 0.422891 0.538776
704 1 0.956974 0.147498 0.990403
705 1 0.317896 0.766331 0.0147606
706 1 0.511002 0.758034 0.330385
707 1 0.961031 0.769238 0.272794
708 1 0.642661 0.0986051 0.615931
709 1 0.287189 0.920199 0.404898
710 1 0.914619 0.808044 0.681272
711 1 0.283323 0.461033 0.959273
712 1 0.953543 0.893828 0.78706
713 1 0.354012 0.764801 0.622617
714 1 0.94662 0.467318 0.82814
715 1 0.198787 0.524223 0.265385
716 1 0.451499 0.466776 0.657715
717 1 0.477222 0.837744 0.212316
718 1 0.446392 0.478661 0.821021
719 1 0.414017 0.0170027 0.568334
720 1 0.77011 0.695606 0.426264
721 1 0.895728 0.0344883 0.153984
722 1 0.494665 0.607783 0.0479966
723 1 0.28716 0.686516 0.120195
724 1 0.238738 0.84886 0.291223
725 1 0.270822 0.220385 0.593118
726 1 0.302738 0.300269 0.380668
727 1 0.0885167 0.11925 0.346999
728 1 0.840577 0.577379 0.929527
729 1 0.349709 0.839021 0.189013
730 1 0.949896 0.744053 0.877074
731 1 0.372795 0.595545 0.255512
732 1 0.532916 0.815476 0.418342
733 1 0.0596212 0.622533 0.353383
734 1 0.541045 0.811203 0.674325
735 1 0.215934 0.948892 0.6528
736 1 0.162275 0.00555309 0.790857
737 1 0.321618 0.484032 0.0864072
738 1 0.236932 0.202777 0.403356
739 1 0.468557 0.910235 0.517118
740 1 0.308666 0.757307 0.939498
741 1 0.12396 0.605192 0.596197
742 1 0.537303 0.0402778 0.33169
743 1 0.376653 0.649957 0.556512
744 1 0.353862 0.174609 0.537128
745 1 0.542524 0.927674 0.574625
746 1 0.70148 0.73614 0.964837
747 1 0.388112 0.16609 0.125852
748 1 0.958244 0.752501 0.114207
749 1 0.701689 0.246094 0.953475
750 1 0.731232 0.249012 0.100862
751 1 0.701571 0.614168 0.938844
752 1 0.490438 0.581546 0.257559
753 1 0.590717 0.0941078 0.190633
754 1 0.151781 0.290231 0.737505
755 1 0.948571 0.31063 0.133709
756 1 0.776653 0.623838 0.0823012
757 1 0.413847 0.0669537 0.52837
758 1 0.848035 0.822346 0.00726777
759 1 0.499199 0.910077 0.337683
760 1 0.805407 0.913812 0.871331
761 1 0.1369 0.642914 0.107886
762 1 0.227279 0.204045 0.0997529
763 1 0.117153 0.853575 0.0132133
764 1 0.870831 0.174884 0.0386128
765 1 0.120508 0.112367 0.897275
766 1 0.338687 0.241136 0.936895
767 1 0.193983 0.936101 0.58801
768 1 0.958164 0.626383 0.0907134
769 1 0.239449 0.833727 0.660498
770 1 0.988248 0.941911 0.266345
771 1 0.297594 0.801725 0.800252
772 1 0.89204 0.213083 0.7854
773 1 0.30964 0.3304 0.472659
774 1 0.0279758 0.321353 0.494455
775 1 0.321014 0.0448817 0.385916
776 1 0.380224 0.0572314 0.17823
777 1 0.864308 0.239469 0.841593
778 1 0.455055 0.761627 0.500258
779 1 0.252921 0.937651 0.208087
780 1 0.320649 0.935999 0.519527
781 1 0.658476 0.352073 0.210401
782 1 0.477009 0.731986 0.286246
783 1 0.483767 0.943418 0.878672
784 1 0.307847 0.981243 0.956163
785 1 0.839088 0.735356 0.316161
786 1 0.922122 0.0160775 0.000867852
787 1 0.795261 0.249726 0.148574
788 1 0.690743 0.0902283 0.90888
789 1 0.708221 0.689365 0.445643
790 1 0.559885 0.992462 0.307541
791 1 0.446834 0.0924868 0.290237
792 1 0.354229 0.107096 0.284515
793 1 0.80232 0.0103933 0.356853
794 1 0.703122 0.814683 0.181158
795 1 0.311822 0.888526 0.203582
796 1 0.607334 0.668988 0.173668
797 1 0.95132 0.892422 0.00544063
798 1 0.793791 0.457069 0.123647
799 1 0.188893 0.83929 0.0475157
800 1 0.685533 0.647102 0.8741
801 1 0.875842 0.806826 0.830221
802 1 0.295828 0.940613 0.16513
803 1 0.146985 0.0696341 0.263368
804 1 0.669931 0.301009 0.860086
805 1 0.612086 0.947033 0.153539
806 1 0.347345 0.526408 0.135954
807 1 0.789329 0.357668 0.369565
808 1 0.460804 0.135233 0.973658
809 1 0.872654 0.0790322 0.909556
810 1 0.314769 0.858955 0.393494
811 1 0.0195413 0.182579 0.475901
812 1 0.00909036 0.0260573 0.469572
813 1 0.175612 0.0693384 0.439395
814 1 0.430462 0.148498 0.0184459
815 1 0.28987 0.521329 0.784033
816 1 0.395234 0.1352 0.337385
817 1 0.168518 0.766124 0.527741
818 1 0.737369 0.984723 0.501785
819 1 0.406095 0.704921 0.507787
820 1 0.114917 0.902058 0.0748579
821 1 0.748475 0.10336 0.284114
822 1 0.183462 0.00723359 0.251642
823 1 0.524161 0.669408 0.468288
824 1 0.436244 0.333007 0.145684
825 1 0.685087 0.0400883 0.151977
826 1 0.975339 0.598383 0.307099
827 1 0.951556 0.814379 0.904677
828 1 0.617096 0.640654 0.113804
829 1 0.0344953 0.158166 0.413949
830 1 0.275046 0.968393 0.483956
831 1 0.510468 0.742075 0.931509
832 1 0.597607 0.959736 0.993413
833 1 0.502157 0.201761 0.102734
834 1 0.609227 0.158864 0.895398
835 1 0.973635 0.203824 0.848635
836 1 0.740496 0.772234 0.199026
837 1 0.717437 0.811347 0.893216
838 1 0.796378 0.0993823 0.323871
839 1 0.94848 0.0732608 0.115825
840 1 0.991869 0.111545 0.335907
841 1 0.101407 0.0286938 0.686904
842 1 0.211061 0.890785 0.671606
843 1 0.143104 0.0342039 0.191885
844 1 0.448443 0.79727 0.937609
845 1 0.70163 0.343942 0.161684
846 1 0.166167 0.00937171 0.0719834
847 1 0.977297 0.848316 0.815973
848 1 0.112707 0.54087 0.991252
849 1 0.0461079 0.152531 0.781524
850 1 0.0898774 0.126535 0.969073
851 1 0.410119 0.912623 0.779281
852 1 0.121863 0.763084 0.985573
853 1 0.0921189 0.687301 0.906427
854 1 0.426687 0.332335 0.016094
855 1 0.0161659 0.20469 0.893937
856 1 0.260766 0.106723 0.584918
857 1 0.134222 0.463685 0.405339
858 1 0.656992 0.47646 0.0417184
859 1 0.886146 0.960097 0.593551
860 1 0.593045 0.422773 0.54353
861 1 0.761469 0.18116 0.236427
862 1 0.59019 0.406678 0.254902
863 1 0.699668 0.931206 0.468847
864 1 0.460138 0.324019 0.482187
865 1 0.728656 0.209773 0.146661
866 1 0.0701134 0.12038 0.824774
867 1 0.10227 0.160209 0.08339
868 1 0.828247 0.240436 0.370219
869 1 0.066645 0.145553 0.29629
870 1 0.300403 0.120806 0.161161
871 1 0.952176 0.154126 0.174255
872 1 0.308156 0.0497497 0.161749
873 1 0.788839 0.319991 0.833387
874 1 0.831066 0.182699 0.226213
875 1 0.559219 0.662022 0.351134
876 1 0.840849 0.751246 0.863252
877 1 0.725122 0.649327 0.506674
878 1 0.0451224 0.0168485 0.0602882
879 1 0.0597131 0.202896 0.0497497
880 1 0.072124 0.848784 0.264681
881 1 0.628201 0.686567 0.55105
882 1 0.831401 0.237787 0.907294
883 1 0.23871 0.203052 0.528851
884 1 0.905572 0.602762 0.211967
885 1 0.0163805 0.71287 0.355797
886 1 0.843146 0.246922 0.594513
887 1 0.943896 0.0827455 0.00512673
888 1 0.674194 0.155791 0.144121
889 1 0.0284407 0.415517 0.175503
890 1 0.876905 0.393261 0.0157768
891 1 0.455045 0.561287 0.878876
892 1 0.657873 0.136041 0.883566
893 1 0.133 0.402652 0.857564
894 1 0.925696 0.625926 0.627803
895 1 0.649176 0.40961 0.545796
896 1 0.956754 0.140474 0.804945
897 1 0.193667 0.104321 0.801592
898 1 0.850774 0.325128 0.219448
899 1 0.530036 0.915188 0.991874
900 1 0.378808 0.330485 0.532668
901 1 0.45934 0.272743 0.664531
902 1 0.52317 0.362677 0.0909942