ITEM: TIMESTEP
57400
ITEM: NUMBER OF ATOMS
4000
ITEM: BOX BOUNDS pp pp pp
0.0000000000000000e+00 1.6795961913825074e+01
0.0000000000000000e+00 1.6795961913825074e+01
0.0000000000000000e+00 1.6795961913825074e+01
ITEM: ATOMS id type xs ys zs
1 1 0.0263538 0.526253 0.0329076
2 1 0.92554 0.972413 0.928641
3 1 0.904239 0.90242 0.189002
4 1 0.621512 0.792306 0.0761646
5 1 0.147295 0.0898749 0.60823
6 1 0.5345 0.818585 0.560762
7 1 0.894837 0.790998 0.584503
8 1 0.320086 0.0647835 0.392509
9 1 0.467749 0.150231 0.0862423
10 1 0.454969 0.251998 0.631552
11 1 0.372127 0.708565 0.0817767
12 1 0.338953 0.72487 0.909414
13 1 0.31529 0.0295183 0.228365
14 1 0.498772 0.688796 0.755287
15 1 0.637178 0.267716 0.169237
16 1 0.253758 0.693463 0.00143536
17 1 0.849309 0.347924 0.643952
18 1 0.473297 0.838549 0.636728
19 1 0.753694 0.986659 0.407207
20 1 0.616821 0.0983725 0.88164
21 1 0.639288 0.852709 0.2214
22 1 0.728067 0.202725 0.934963
23 1 0.697854 0.201656 0.818913
24 1 0.643166 0.895633 0.923084
25 1 0.881775 0.968796 0.0307871
26 1 0.755512 0.293268 0.104236
27 1 0.0947931 0.0241971 0.140215
28 1 0.497881 0.874535 0.919821
29 1 0.221785 0.714635 0.154584
30 1 0.768677 0.711227 0.864617
31 1 0.0189605 0.0155077 0.0244938
32 1 0.280955 0.0114376 0.170872
33 1 0.0396553 0.866203 0.00911726
34 1 0.834848 0.0855366 0.144278
35 1 0.238764 0.828995 0.343647
36 1 0.0204669 0.11333 0.7059
37 1 0.634411 0.710853 0.992828
38 1 0.486378 0.903672 0.14988
39 1 0.0747847 0.0774904 0.693432
40 1 0.00280164 0.887468 0.229317
41 1 0.922403 0.1475 0.758618
42 1 0.910508 -0.00178878 0.428291
43 1 0.800646 0.253433 0.357573
44 1 0.254125 0.750496 0.31177
45 1 0.854881 0.0639621 0.88325
46 1 0.707244 0.318099 0.0375238
47 1 0.554952 0.718858 0.213432
48 1 0.24303 0.36716 0.146761
49 1 0.20411 0.347404 0.611614
50 1 0.598496 0.83086 0.260185
51 1 0.537092 0.832139 0.322526
52 1 0.316845 0.105617 0.0284234
53 1 0.412205 0.228571 0.110939
54 1 0.098896 0.85665 0.856804
55 1 0.640421 0.388841 0.268106
56 1 0.495761 0.0829533 0.10098
57 1 0.42872 0.388988 0.323086
58 1 0.575224 0.251918 0.0701936
59 1 0.0648305 0.187008 0.414594
60 1 0.370151 0.341807 0.334798
61 1 0.434425 0.444124 0.985609
62 1 0.243861 0.211016 0.0780396
63 1 0.377661 0.117478 0.0178825
64 1 0.424065 0.153425 0.464184
65 1 0.524554 0.324097 0.0251922
66 1 0.684462 0.637794 0.256893
67 1 0.215669 0.492206 0.17415
68 1 0.883376 0.542679 0.026086
69 1 0.393944 0.240413 0.970969
70 1 0.762695 0.0969773 0.803374
71 1 0.778266 0.280029 0.297217
72 1 0.385394 0.169215 0.989424
73 1 0.782042 0.209268 0.873481
74 1 0.168493 0.711991 0.132669
75 1 0.599751 0.694942 0.911337
76 1 0.78548 0.974409 0.0903347
77 1 0.707945 0.175566 0.0821384
78 1 0.0430423 0.788712 0.471444
79 1 0.611234 0.932334 0.986815
80 1 0.341613 0.329609 0.0958837
81 1 0.0307268 0.179519 0.890858
82 1 0.96338 0.779183 0.892716
83 1 0.977943 0.839586 0.379903
84 1 0.465726 0.384198 0.122008
85 1 0.797633 0.0829692 0.614217
86 1 0.0114787 0.390704 0.959576
87 1 0.608346 0.231046 0.724263
88 1 0.10066 0.973518 0.665603
89 1 0.455025 0.925604 0.277023
90 1 0.309968 0.0954367 0.910706
91 1 0.948263 0.292852 0.713405
92 1 0.219034 0.711384 0.0570357
93 1 0.386766 0.132775 0.829522
94 1 0.962546 0.904534 0.926614
95 1 0.345231 0.534999 0.631783
96 1 0.435682 0.270714 0.0361348
97 1 0.295834 0.311252 0.128426
98 1 0.660643 0.86013 0.279985
99 1 0.265409 0.12799 0.333169
100 1 0.698862 0.211614 0.759713
101 1 0.807683 0.3746 0.429454
102 1 0.262958 0.875493 0.464405
103 1 0.85113 0.513285 0.075287
104 1 0.493045 0.124332 0.156016
105 1 0.00130489 0.959901 0.839214
106 1 0.765734 0.273403 0.65969
107 1 0.655125 0.561131 0.432401
108 1 0.934882 0.168528 0.966057
109 1 0.0288388 0.871226 0.517172
110 1 0.668588 0.089313 0.998912
111 1 0.572896 0.852284 0.713628
112 1 0.390625 0.283409 0.104194
113 1 0.417469 0.144167 0.0511906
114 1 0.829415 0.65648 0.483336
115 1 0.407875 0.263155 0.320422
116 1 0.374833 0.680087 0.50426
117 1 0.295094 0.94592 0.318975
118 1 0.459006 0.080224 0.257734
119 1 0.0510913 0.177155 0.324206
120 1 0.641328 0.323496 0.85553
121 1 0.426241 0.512208 0.744656
122 1 0.122707 0.963067 0.939194
123 1 0.148491 0.424235 0.0204753
124 1 0.242331 0.671279 0.887518
125 1 0.233892 0.388103 0.0881897
126 1 0.352429 0.284911 0.346713
127 1 0.917672 0.971765 0.7165
128 1 0.0980465 0.673538 0.865076
129 1 0.606042 0.252556 0.4289
130 1 0.836166 0.505804 0.257827
131 1 0.983447 0.346174 0.629065
132 1 0.409946 0.405505 0.948405
133 1 0.88206 0.0111494 0.771355
134 1 0.070121 0.657615 0.750728
135 1 0.373449 0.431298 0.0398378
136 1 0.255001 0.049946 0.567098
137 1 0.556348 0.182519 0.932045
138 1 0.293231 0.0285119 0.913751
139 1 0.835828 0.486991 0.201241
140 1 0.0321829 0.138288 0.491178
141 1 0.150696 0.0206741 0.512115
142 1 0.321649 0.229119 0.966088
143 1 0.275696 0.266071 0.0931451
144 1 0.584747 0.0589629 0.450352
145 1 0.919698 0.447158 0.625076
146 1 0.690676 0.651557 0.118374
147 1 0.153016 0.396448 0.968858
148 1 0.432473 0.277194 0.866717
149 1 0.185044 0.255027 0.261981
150 1 0.901993 0.419954 0.994029
151 1 0.110601 0.142182 0.148795
152 1 0.944423 0.578605 0.752058
153 1 0.892307 0.969698 0.297091
154 1 0.36205 0.330042 0.953364
155 1 0.665121 0.416416 0.510739
156 1 0.969681 0.364931 0.90351
157 1 0.830761 0.299813 0.955926
158 1 0.107496 0.221613 0.556801
159 1 0.677483 0.236941 0.953763
160 1 0.767968 0.743878 0.165211
161 1 0.962212 0.217484 0.0709865
162 1 0.840262 0.144293 0.0569661
163 1 0.126545 0.380613 0.284923
164 1 0.0362348 0.693656 0.945769
165 1 0.925597 0.58516 0.849274
166 1 0.47375 0.82346 0.0481334
167 1 0.148196 0.202211 0.363131
168 1 0.975495 0.880295 0.562923
169 1 0.447712 0.733095 0.842632
170 1 0.245067 0.638945 0.400225
171 1 0.375122 0.558508 0.321889
172 1 0.182382 0.404665 0.309822
173 1 0.247644 0.422857 0.149889
174 1 0.808379 0.611201 0.15426
175 1 0.321907 0.454723 0.4896
176 1 0.208741 0.920734 0.78475
177 1 0.339262 0.579605 0.985203
178 1 0.768097 0.502603 0.251091
179 1 0.569062 0.246293 0.858729
180 1 0.0258386 0.300929 0.139211
181 1 0.382555 0.538148 0.200837
182 1 0.801331 0.228112 0.682785
183 1 0.279425 0.602231 0.192119
184 1 0.480747 0.583529 0.772839
185 1 0.688526 0.898462 0.613423
186 1 0.99138 0.243589 0.153196
187 1 0.289355 0.533823 0.64807
188 1 0.184142 0.28812 0.0169251
189 1 0.819717 0.239505 0.808551
190 1 0.33999 0.124139 0.949143
191 1 0.72807 0.204162 0.217724
192 1 0.843082 0.541355 0.161166
193 1 0.408615 0.91463 0.0912808
194 1 0.901241 0.501444 0.935275
195 1 0.970552 0.62117 0.619596
196 1 0.951888 0.209332 0.00346739
197 1 0.577423 0.318766 0.158719
198 1 0.267745 0.577508 0.0850678
199 1 0.102652 0.208917 0.487723
200 1 0.654344 0.6901 0.606099
201 1 0.0249008 0.306053 0.0571349
202 1 0.30447 0.608379 0.941797
203 1 0.0888674 0.417991 0.976292
204 1 0.173477 0.423986 0.0787584
205 1 0.289598 0.766896 0.501668
206 1 0.494832 0.44904 0.0802967
207 1 0.933636 0.696329 0.0630571
208 1 0.0973543 0.911945 0.95089
209 1 0.100443 0.971335 0.352601
210 1 0.381739 0.851218 0.200817
211 1 0.182185 0.197651 0.0836856
212 1 0.184863 0.909326 0.0283293
213 1 0.903326 0.0003392 0.874294
214 1 0.801292 0.592069 0.976085
215 1 0.12116 0.336292 0.826377
216 1 0.10854 0.541864 0.131832
217 1 0.244407 0.528616 0.279264
218 1 0.474338 0.621113 0.194452
219 1 0.476901 0.00849125 0.162562
220 1 0.256356 0.835611 0.4142
221 1 0.460437 0.57433 0.011762
222 1 0.360486 0.699645 0.0239444
223 1 0.671628 0.615199 0.408098
224 1 0.381514 0.58082 0.650286
225 1 0.53842 0.706565 0.92252
226 1 0.605272 0.069236 0.82676
227 1 0.183606 0.888176 0.178291
228 1 0.281161 0.47086 0.235649
229 1 0.418485 0.456866 0.883442
230 1 0.132008 0.632528 0.071052
231 1 0.0453779 0.478033 0.849059
232 1 0.233166 0.32939 0.18254
233 1 0.735345 0.923816 0.10847
234 1 0.953066 0.632204 0.231124
235 1 0.0785126 0.354572 0.112311
236 1 0.636561 0.426122 0.824786
237 1 0.75378 0.226202 0.317433
238 1 0.40347 0.0307763 0.850362
239 1 0.728792 0.449559 0.827891
240 1 0.801782 0.294975 0.243967
241 1 0.732875 0.953588 0.185268
242 1 0.373215 0.922142 0.840239
243 1 0.361895 0.922426 0.633311
244 1 0.297865 0.799163 1.00041
245 1 0.953423 0.763404 0.0664881
246 1 0.00624826 0.810954 0.94428
247 1 0.245336 0.789028 0.895076
248 1 0.922294 0.857888 0.943756
249 1 0.187414 0.0289321 0.343445
250 1 0.947006 0.532959 0.83644
251 1 0.511526 0.684589 0.816746
252 1 0.96117 -0.000953283 0.87577
253 1 0.411228 0.821737 0.451098
254 1 0.238304 0.269986 0.854744
255 1 0.450508 0.445682 0.444845
256 1 0.340231 0.605789 0.220271
257 1 0.502381 0.3854 0.0260236
258 1 0.0654822 0.500394 0.593782
259 1 0.427588 0.731884 0.0845643
260 1 0.19946 0.464552 0.621766
261 1 0.630112 0.0611983 0.0663316
262 1 0.73118 0.451562 0.235359
263 1 0.200778 0.688952 0.391954
264 1 0.348553 0.388487 0.0738371
265 1 0.568212 0.395479 0.93621
266 1 0.288228 0.572218 0.852271
267 1 0.533959 0.455156 0.966288
268 1 0.903493 0.198084 0.152311
269 1 0.292618 0.706061 0.954968
270 1 0.175826 0.00719199 0.056504
271 1 0.9495 0.337854 0.360751
272 1 0.13894 0.500107 0.858222
273 1 0.983051 0.383893 0.755102
274 1 0.625581 0.0134728 0.9643
275 1 0.129125 0.375037 0.611241
276 1 0.847742 0.122596 0.325412
277 1 0.850554 0.483559 0.901953
278 1 0.756831 0.465763 0.734247
279 1 0.579147 0.636706 0.383343
280 1 0.158943 0.87243 0.863085
281 1 0.0142687 0.780231 0.358747
282 1 0.240387 0.331952 0.88841
283 1 0.758842 0.81208 0.0566148
284 1 0.845909 0.991279 0.492144
285 1 0.0411806 0.670301 0.535085
286 1 0.100291 0.271549 0.286491
287 1 0.528264 0.217496 0.995918
288 1 0.0618492 0.435103 0.60687
289 1 0.819087 0.844577 0.225956
290 1 0.572269 0.111706 0.640525
291 1 0.150285 0.848192 0.49831
292 1 0.404668 0.0435271 0.245236
293 1 0.34981 0.682292 0.341425
294 1 0.516939 0.838983 0.0847157
295 1 0.584296 0.50792 0.298802
296 1 0.375695 0.923405 0.156682
297 1 0.751946 0.432796 0.151057
298 1 0.32779 0.708113 0.258691
299 1 0.410423 0.829818 0.283345
300 1 0.940203 0.490831 0.769356
301 1 0.451598 0.611264 0.619179
302 1 0.697087 0.416111 0.208904
303 1 0.993458 0.774854 0.146174
304 1 0.719583 1.00313 0.671904
305 1 0.314728 0.362697 0.849556
306 1 0.511976 0.707031 0.406029
307 1 0.874285 0.208555 0.961472
308 1 0.594411 0.778099 0.0179421
309 1 0.0858403 0.748053 0.884533
310 1 0.855044 0.129518 0.787386
311 1 0.199238 0.77253 0.487434
312 1 0.610511 0.543325 0.203406
313 1 0.882159 0.690724 0.00937075
314 1 0.884636 0.861185 0.714899
315 1 0.392682 0.169846 0.417441
316 1 0.751719 0.640023 0.442742
317 1 0.61454 0.842198 0.774554
318 1 0.564424 0.940852 0.838953
319 1 0.0208668 0.369141 0.0744833
320 1 0.33524 0.847307 0.974124
321 1 0.166793 0.823621 0.368389
322 1 0.688005 0.73515 0.985403
323 1 0.401937 0.486813 0.36772
324 1 0.997012 0.882754 0.0636623
325 1 0.177174 0.635765 0.172675
326 1 0.0277358 0.00911195 0.787386
327 1 0.186319 0.867026 0.784441
328 1 0.196193 0.679019 0.205775
329 1 0.803685 0.560948 0.802521
330 1 0.982896 0.322902 0.0954792
331 1 0.394886 0.88939 0.885383
332 1 0.291373 0.312187 0.862431
333 1 0.215937 1.00018 0.736066
334 1 0.931085 0.787995 0.524384
335 1 0.707823 0.02923 0.197459
336 1 0.100981 0.798153 0.921124
337 1 0.713597 0.652653 0.846622
338 1 0.178653 0.076633 0.0178423
339 1 0.513163 0.489049 0.681969
340 1 0.0456277 0.00243978 0.187814
341 1 0.499544 0.650985 0.251337
342 1 0.48951 0.833447 0.986302
343 1 0.590551 0.898606 0.0644726
344 1 0.854963 0.174245 0.751255
345 1 0.868758 0.609522 0.993475
346 1 0.429728 0.472279 0.126146
347 1 0.635612 0.198757 0.924358
348 1 0.583305 0.0606856 0.385941
349 1 0.363262 0.523695 0.495413
350 1 0.688488 0.696112 0.0489795
351 1 0.702661 0.759141 0.151786
352 1 0.91714 0.903096 0.548211
353 1 0.18811 0.83172 0.724901
354 1 0.624734 0.720231 0.849625
355 1 0.920574 0.63131 0.00896138
356 1 0.80994 0.401382 0.278791
357 1 0.366062 0.104355 0.268694
358 1 0.947097 0.0339995 0.711835
359 1 0.11896 0.654614 0.1971
360 1 0.967726 0.130571 0.10159
361 1 0.324523 0.634485 0.288847
362 1 0.229898 0.363448 0.774874
363 1 0.906466 0.725963 0.891461
364 1 0.633013 0.153692 0.185456
365 1 0.0548351 0.813844 0.138225
366 1 0.260353 0.980701 0.774092
367 1 0.155944 0.0579525 0.242153
368 1 0.0722891 0.189209 0.606513
369 1 0.426574 0.0847304 0.0371013
370 1 0.112913 0.584422 0.683057
371 1 0.285003 0.950525 0.983364
372 1 0.0325813 0.46802 0.781978
373 1 0.746943 0.693585 0.810438
374 1 0.74712 0.81395 0.380557
375 1 0.395878 0.584892 0.115691
376 1 0.913918 0.929925 0.382561
377 1 0.420492 0.775074 0.790097
378 1 0.570332 0.808432 0.897088
379 1 0.489263 0.278109 0.316867
380 1 0.305381 0.74764 0.156686
381 1 0.778428 0.869849 0.0623009
382 1 0.644912 0.0799495 0.498108
383 1 0.988101 0.936281 0.397965
384 1 0.689286 0.941704 0.817648
385 1 0.855168 0.0150157 0.00647297
386 1 0.39292 0.35227 0.133597
387 1 0.49135 0.00338384 0.78241
388 1 0.321718 0.222722 0.429254
389 1 0.0693779 0.0922792 0.849794
390 1 0.621432 0.394758 0.969318
391 1 0.29274 0.839042 0.906949
392 1 0.27959 0.990643 0.585423
393 1 0.275655 0.705957 0.209658
394 1 0.779709 0.417698 0.802598
395 1 0.431964 0.534639 0.299227
396 1 0.0308139 0.448513 0.959453
397 1 0.218865 0.578658 0.749797
398 1 0.18318 0.793721 0.429438
399 1 0.33929 0.10857 0.329055
400 1 0.761076 0.116496 0.154804
401 1 0.864611 0.0482408 0.729547
402 1 0.426237 0.0901883 0.809392
403 1 0.396584 0.519966 0.14474
404 1 0.776939 0.155886 0.0946452
405 1 0.526311 0.946255 0.386161
406 1 0.838691 0.190804 0.176446
407 1 0.273013 0.894313 0.253146
408 1 0.445849 0.930627 0.418232
409 1 0.0939296 0.17652 0.048283
410 1 0.0975467 0.48304 0.138357
411 1 0.0805481 0.0568513 0.361164
412 1 0.436842 0.10108 0.191482
413 1 0.306914 0.957455 0.929512
414 1 0.276882 0.904382 0.935887
415 1 0.687026 0.56812 0.295864
416 1 0.389957 0.0335474 0.095698
417 1 0.827274 0.474338 0.0423684
418 1 0.350864 0.400914 0.129845
419 1 0.711159 0.0368729 0.5655
420 1 0.198984 0.416304 0.820726
421 1 0.584919 0.179398 0.994531
422 1 0.511055 0.0321983 0.410176
423 1 0.878531 0.493059 0.996818
424 1 0.612449 0.993261 0.357967
425 1 0.109344 0.193758 0.18469
426 1 0.634053 0.969589 0.149329
427 1 0.681516 0.686506 0.371164
428 1 0.180179 0.0554614 0.908759
429 1 0.815412 0.743268 0.0532822
430 1 0.3679 0.22484 0.176241
431 1 0.784612 0.716 0.0918519
432 1 0.405752 0.289439 0.729332
433 1 0.794483 0.013616 0.884178
434 1 0.042926 0.982533 0.871097
435 1 0.674149 0.0805443 0.291815
436 1 0.0903732 0.0872063 0.267139
437 1 0.398718 0.113664 0.934978
438 1 0.570215 0.390499 0.0241977
439 1 0.178171 0.666614 0.872295
440 1 0.465908 0.931086 0.3437
441 1 0.850391 0.167765 0.232803
442 1 0.187803 0.11479 0.0656862
443 1 0.810172 0.329682 0.0845299
444 1 0.1648 0.264267 0.333648
445 1 0.92457 0.0820021 0.74159
446 1 0.0880973 0.182735 0.850038
447 1 0.787004 0.232698 0.546626
448 1 0.509196 0.0467728 0.917848
449 1 0.0555701 0.0291267 0.923791
450 1 0.199118 0.852118 0.435461
451 1 0.898563 0.788967 0.734474
452 1 0.504026 0.752318 0.21354
453 1 0.154039 0.221671 0.940553
454 1 0.081356 0.0285407 0.871706
455 1 0.281909 0.680627 0.29935
456 1 0.55601 0.766947 0.832736
457 1 0.167841 0.956457 0.258957
458 1 0.472501 0.215433 0.11888
459 1 0.824231 0.206751 0.277582
460 1 0.163128 0.520464 0.596872
461 1 0.263656 0.872235 0.528908
462 1 0.09309 0.0845833 0.911637
463 1 0.246582 0.870258 0.802328
464 1 0.716192 0.724207 0.318777
465 1 0.808635 0.0174557 0.72657
466 1 0.747235 0.358623 0.990245
467 1 0.74704 0.847312 0.85976
468 1 0.389582 0.225337 0.457618
469 1 0.0807688 0.302186 0.232161
470 1 0.660218 0.297608 0.504955
471 1 0.994116 0.369551 0.14116
472 1 0.144476 0.314736 0.274046
473 1 0.0856 0.0563857 0.636872
474 1 0.234699 0.259211 0.669557
475 1 0.62346 0.141645 0.399735
476 1 0.847831 0.800056 0.891657
477 1 0.751862 0.922211 0.229486
478 1 0.432543 0.288636 0.273597
479 1 0.823764 0.315236 0.71235
480 1 0.64339 0.659305 0.146771
481 1 0.322072 0.445782 0.940177
482 1 0.824989 0.947288 0.840996
483 1 0.397197 0.0157879 0.0379329
484 1 0.974241 0.210593 0.20454
485 1 0.0405605 0.321903 0.276403
486 1 0.0374131 0.524795 0.217014
487 1 0.0645967 0.464507 0.0457795
488 1 0.980837 0.0504217 0.840664
489 1 0.073044 0.257612 0.906339
490 1 0.12553 0.285578 0.615197
491 1 0.487694 0.936401 0.825531
492 1 0.272883 0.553094 0.929053
493 1 0.220088 0.0775952 0.431635
494 1 0.45613 0.884056 0.533498
495 1 0.353332 0.0336134 0.28069
496 1 0.563864 0.702112 0.718762
497 1 0.00406147 0.930701 0.96639
498 1 0.2655 0.184597 0.294265
499 1 0.0413308 0.080842 0.056794
500 1 0.350695 0.84924 0.856542
501 1 0.60441 0.112289 0.0522549
502 1 0.291213 0.289377 0.251487
503 1 0.521677 0.59524 0.163079
504 1 0.542436 0.681485 0.091873
505 1 0.833063 0.74081 0.636375
506 1 0.275218 0.31804 0.372564
507 1 0.0422852 0.263287 0.208966
508 1 0.47835 0.17316 0.740031
509 1 0.588706 0.328754 0.0198495
510 1 0.0518302 0.852099 0.0739849
511 1 0.949055 0.00132983 0.134135
512 1 0.511617 0.676109 0.302447
513 1 0.535809 0.168442 0.111283
514 1 0.958912 0.724326 0.113878
515 1 0.141026 0.863793 0.222212
516 1 0.795981 0.355565 0.238258
517 1 0.80293 0.891694 0.819238
518 1 0.861918 0.731094 0.582262
519 1 0.0791761 0.359025 0.425484
520 1 0.176609 0.909915 0.425516
521 1 0.596907 0.33345 0.900696
522 1 0.360074 0.411053 0.312207
523 1 0.708609 0.0289083 0.991913
524 1 0.21365 0.401477 0.976341
525 1 0.0428854 0.758254 0.962102
526 1 0.51558 0.108847 0.942176
527 1 0.0683668 0.838011 0.811092
528 1 0.267083 0.314303 0.661485
529 1 0.846605 0.386501 0.103574
530 1 0.234573 0.467355 0.110917
531 1 0.0189169 0.208965 0.0196203
532 1 0.17501 0.275846 0.835652
533 1 0.337069 0.424532 0.599852
534 1 0.802814 0.942288 0.732174
535 1 0.26588 0.757321 0.251181
536 1 0.241806 0.411309 0.395962
537 1 0.432213 0.14591 0.778244
538 1 0.6725 0.306667 0.988416
539 1 0.122848 0.911507 0.339205
540 1 0.461556 0.362089 0.177498
541 1 0.578052 0.489297 0.100711
542 1 0.496376 0.664138 0.147753
543 1 0.572731 0.115369 0.468829
544 1 0.195414 0.347881 0.975349
545 1 0.240953 0.381409 0.323362
546 1 0.313258 0.571911 0.690492
547 1 0.499873 0.507041 0.935292
548 1 0.755411 0.0640153 0.0232243
549 1 0.820974 0.939283 0.051807
550 1 0.854909 0.312906 0.13413
551 1 0.953343 0.329357 0.578035
552 1 0.141974 0.124929 0.909722
553 1 0.741105 0.135722 0.212408
554 1 0.742892 0.600946 0.583734
555 1 0.949865 0.457657 0.00681515
556 1 0.0930705 0.168626 0.710314
557 1 0.244491 0.428654 0.862171
558 1 0.814988 0.246703 0.0538286
559 1 0.931231 0.0463863 0.97523
560 1 0.849629 0.32565 0.274219
561 1 0.666007 0.995579 0.570353
562 1 0.0207308 0.318927 0.20437
563 1 0.161888 0.443804 0.866637
564 1 0.45601 0.0474869 0.211914
565 1 0.923671 0.9158 0.968963
566 1 0.696475 0.803323 0.254452
567 1 0.442301 0.267349 0.44388
568 1 0.788916 0.569705 0.488791
569 1 0.919289 0.404743 0.870414
570 1 0.15481 0.431285 0.191718
571 1 0.0484999 0.797267 0.877045
572 1 0.38479 0.481052 0.0787875
573 1 0.352698 0.683571 0.692991
574 1 0.199351 0.202104 0.478807
575 1 0.412156 0.396233 0.598528
576 1 0.24246 0.933063 0.0211465
577 1 0.0707019 0.327083 0.0189525
578 1 0.428249 0.196278 0.723432
579 1 0.663993 0.572744 0.905728
580 1 0.667912 0.84578 0.940223
581 1 0.469495 0.598027 0.847477
582 1 0.655008 0.490383 0.117239
583 1 0.478353 0.301689 0.840518
584 1 0.0785935 0.40452 0.0676362
585 1 0.289454 0.414612 0.770026
586 1 0.0471011 0.378694 0.918354
587 1 0.0674732 0.912072 0.261372
588 1 0.155746 0.142035 0.0219896
589 1 0.603574 0.592431 0.649703
590 1 0.907377 0.3086 0.798649
591 1 0.982775 0.186535 0.935205
592 1 0.537559 0.657727 0.988805
593 1 0.663434 0.362019 0.38238
594 1 0.983315 0.292769 0.246767
595 1 0.407042 0.326714 0.993303
596 1 0.949964 0.292897 0.143839
597 1 0.992415 0.661674 0.927811
598 1 0.0833322 0.84377 0.210093
599 1 0.949557 0.109857 0.883095
600 1 0.729036 0.852859 0.744344
601 1 0.101707 0.294344 0.129657
602 1 0.249124 0.244244 0.270263
603 1 0.093975 0.947163 0.437468
604 1 0.382134 0.932278 0.285255
605 1 0.240333 0.932684 0.117232
606 1 0.78824 0.562557 0.861354
607 1 0.204961 0.68219 0.819073
608 1 0.340829 0.195455 0.859128
609 1 0.879009 0.737578 0.110912
610 1 0.947204 0.431836 0.214113
611 1 0.41493 0.806103 0.232476
612 1 0.248829 0.770592 0.166141
613 1 0.437476 0.315671 0.210787
614 1 0.119443 0.43123 0.093805
615 1 0.368194 0.0568782 0.997266
616 1 0.117458 0.78616 0.219877
617 1 0.683517 0.372568 0.833694
618 1 0.287105 0.454508 0.819416
619 1 0.234472 0.741032 0.41385
620 1 0.166271 0.0817005 0.299358
621 1 0.720997 0.701163 0.1315
622 1 0.683129 0.262372 0.390262
623 1 0.966903 0.517694 0.0383856
624 1 0.613379 0.244972 0.670456
625 1 0.989533 0.70864 0.722613
626 1 0.179458 0.374639 0.0337473
627 1 0.552952 0.314805 0.83355
628 1 0.132313 0.440753 0.263659
629 1 0.809198 0.911982 0.247026
630 1 0.572274 0.775165 0.325682
631 1 0.860178 0.773829 0.150199
632 1 0.0507729 0.542674 0.105757
633 1 0.0717585 0.351877 0.365417
634 1 0.758299 0.381848 0.0919372
635 1 0.101285 0.421388 0.14715
636 1 0.823656 0.726842 0.137338
637 1 0.705678 0.0964112 0.176751
638 1 0.457366 0.631374 0.00155648
639 1 0.80242 0.984544 0.00774551
640 1 0.226999 0.542886 0.148812
641 1 0.516271 0.754153 0.883041
642 1 0.582068 0.761445 0.175232
643 1 0.553086 0.650573 0.878656
644 1 0.177715 0.336425 0.13741
645 1 0.987721 0.106095 0.463539
646 1 0.385098 0.608562 0.45012
647 1 0.58561 0.875306 0.299048
648 1 0.0478901 0.946245 0.37318
649 1 0.139105 0.0382137 0.186782
650 1 0.102523 0.158326 0.930981
651 1 0.154797 0.859084 0.0100127
652 1 0.961335 0.890511 0.168232
653 1 0.694199 0.529583 0.778222
654 1 0.888043 0.119364 0.457557
655 1 0.184442 0.548976 0.211778
656 1 0.334994 0.464401 0.648958
657 1 0.363125 0.8924 0.0336883
658 1 0.768089 0.601718 0.381383
659 1 0.582449 0.178307 0.801079
660 1 0.584983 0.748369 0.898724
661 1 0.17947 0.303115 0.539814
662 1 0.79135 0.644077 0.273777
663 1 0.641794 0.930707 0.384122
664 1 0.355115 0.531556 0.0422232
665 1 0.574923 0.438123 0.327652
666 1 0.974267 0.771443 0.244927
667 1 0.526996 0.464636 0.288964
668 1 0.136522 0.576698 0.184075
669 1 0.60155 0.396361 0.676901
670 1 0.62121 0.537008 0.703415
671 1 0.721656 0.428429 0.0917178
672 1 0.960725 0.316555 0.825746
673 1 0.829156 0.73625 0.345987
674 1 0.183673 0.813598 0.218062
675 1 0.326971 0.140182 0.810045
676 1 0.175882 0.0374804 0.434272
677 1 0.57668 0.637521 0.0732613
678 1 0.880651 0.561247 0.932228
679 1 0.0578037 0.985317 0.0806806
680 1 0.937028 0.559358 0.0883505
681 1 0.319251 0.129195 0.390244
682 1 0.837179 0.747534 0.953279
683 1 0.363671 0.993384 0.961931
684 1 0.651566 0.919477 0.107111
685 1 0.200594 0.880127 0.969243
686 1 0.272091 0.57294 0.4271
687 1 0.815931 0.743866 0.546722
688 1 0.361854 0.943092 0.911422
689 1 0.177513 0.303081 0.889578
690 1 0.299063 0.00570805 0.280862
691 1 0.647909 0.0762989 0.423536
692 1 0.793295 0.853636 0.127748
693 1 0.510762 0.598094 0.99035
694 1 0.680496 0.862698 0.10292
695 1 0.0717228 0.370547 0.625664
696 1 0.344486 0.195335 0.635961
697 1 0.719556 0.339382 0.0867748
698 1 0.182805 0.483242 0.818577
699 1 0.558818 0.839804 0.164883
700 1 0.753522 0.391287 0.271139
701 1 0.436839 0.161528 0.161435
702 1 0.783586 0.885048 0.889638
703 1 0.458681 0.384312 0.489928
704 1 0.0541751 0.12916 0.917788
705 1 0.31888 0.778843 0.0756006
706 1 0.519145 0.770733 0.396871
707 1 0.952474 0.783642 0.338441
708 1 0.713001 0.0896855 0.681087
709 1 0.279869 0.921405 0.377791
710 1 0.943409 0.784751 0.67463
711 1 0.272046 0.416888 0.947801
712 1 0.00381529 0.857146 0.718192
713 1 0.368467 0.876175 0.598778
714 1 0.0028025 0.541251 0.765725
715 1 0.254899 0.587054 0.369961
716 1 0.443608 0.453661 0.622125
717 1 0.515708 0.859086 0.210329
718 1 0.414342 0.414125 0.811755
719 1 0.405918 0.954125 0.605547
720 1 0.79959 0.73128 0.430491
721 1 0.917677 0.98631 0.184639
722 1 0.365198 0.634203 0.987334
723 1 0.260623 0.648944 0.0472158
724 1 0.325465 0.873965 0.381393
725 1 0.226445 0.215187 0.623653
726 1 0.252582 0.346326 0.430288
727 1 0.131742 0.146645 0.309139
728 1 0.822532 0.594288 0.903837
729 1 0.279604 0.813105 0.224529
730 1 0.0253832 0.71689 0.843656
731 1 0.370928 0.657617 0.174722
732 1 0.564321 0.764554 0.441664
733 1 0.997021 0.563052 0.377854
734 1 0.626355 0.799286 0.732869
735 1 0.246322 0.980032 0.68026
736 1 0.223115 0.977957 0.823799
737 1 0.327941 0.468891 0.0398051
738 1 0.217704 0.233726 0.43355
739 1 0.450558 0.867556 0.455863
740 1 0.348372 0.749263 0.975475
741 1 0.144085 0.609904 0.57896
742 1 0.547825 0.0618873 0.343983
743 1 0.402027 0.641637 0.604375
744 1 0.384137 0.187273 0.521743
745 1 0.541783 0.888671 0.602619
746 1 0.601874 0.769981 0.950518
747 1 0.361616 0.152765 0.1633
748 1 0.993317 0.850393 0.114458
749 1 0.725843 0.267555 0.99281
750 1 0.803026 0.282565 0.144318
751 1 0.705804 0.546099 0.966806
752 1 0.571136 0.589972 0.212015
753 1 0.593294 0.176083 0.129473
754 1 0.145033 0.284537 0.78286
755 1 0.0146661 0.255388 0.0929876
756 1 0.768065 0.678797 0.0446709
757 1 0.402694 0.0175528 0.503884
758 1 0.872366 0.825842 0.971392
759 1 0.507269 0.889816 0.351126
760 1 0.829962 0.853016 0.858075
761 1 0.183267 0.583901 0.134616
762 1 0.179164 0.137806 0.147864
763 1 0.100859 0.837498 0.0434104
764 1 0.831455 0.126092 0.998749
765 1 0.11894 0.13681 0.859076
766 1 0.372241 0.219051 0.918796
767 1 0.190696 0.886701 0.55249
768 1 0.95379 0.611481 0.140278
769 1 0.2711 0.833819 0.65395
770 1 0.964267 0.928296 0.299382
771 1 0.3004 0.850913 0.801828
772 1 0.970641 0.170836 0.735547
773 1 0.38158 0.30428 0.454534
774 1 0.015762 0.273033 0.498803
775 1 0.34422 0.992159 0.409036
776 1 0.349079 0.974542 0.184703
777 1 0.881684 0.256352 0.821551
778 1 0.4578 0.79576 0.485069
779 1 0.284922 0.972853 0.224559
780 1 0.350948 0.982403 0.513107
781 1 0.619119 0.378201 0.146585
782 1 0.4822 0.719172 0.259117
783 1 0.521058 0.90177 0.861366
784 1 0.359598 0.924341 0.970496
785 1 0.863169 0.713095 0.304022
786 1 0.892241 0.0312308 0.0506509
787 1 0.826953 0.258785 0.202284
788 1 0.741672 0.0352496 0.860793
789 1 0.713742 0.725291 0.478196
790 1 0.586283 0.934074 0.365303
791 1 0.381159 0.0586359 0.198162
792 1 0.324903 0.109197 0.210767
793 1 0.796789 0.972388 0.359351
794 1 0.677299 0.818016 0.185992
795 1 0.334557 0.863264 0.167986
796 1 0.722697 0.603628 0.176288
797 1 0.926782 0.847492 0.0019414
798 1 0.8578 0.491071 0.130501
799 1 0.198509 0.88971 0.11047
800 1 0.612664 0.611625 0.891393
801 1 0.888756 0.766728 0.845099
802 1 0.305053 0.918353 0.199247
803 1 0.171299 0.136411 0.271133
804 1 0.677325 0.318335 0.806455
805 1 0.58097 0.947503 0.123682
806 1 0.336922 0.45345 0.104061
807 1 0.786531 0.392552 0.329653
808 1 0.471264 0.2097 0.957811
809 1 0.944361 0.0555476 0.900124
810 1 0.412903 0.826781 0.356717
811 1 0.0447787 0.0844775 0.425528
812 1 0.979561 0.0361271 0.45219
813 1 0.231312 0.998386 0.42435
814 1 0.474975 0.195388 0.022599
815 1 0.297219 0.476617 0.75941
816 1 0.44104 0.11865 0.325007
817 1 0.104088 0.728095 0.529329
818 1 0.752578 0.990594 0.529195
819 1 0.456678 0.706292 0.483244
820 1 0.117022 0.904925 0.125916
821 1 0.719396 0.13724 0.30495
822 1 0.224815 0.995641 0.286967
823 1 0.52384 0.627942 0.538468
824 1 0.411559 0.270587 0.159429
825 1 0.650994 0.0570582 0.179567
826 1 0.966167 0.620518 0.292647
827 1 0.943961 0.793759 0.970018
828 1 0.669105 0.728774 0.0905846
829 1 0.990237 0.10111 0.40266
830 1 0.250555 0.0306014 0.485055
831 1 0.4826 0.673806 0.949668
832 1 0.594913 0.0111491 0.0219558
833 1 0.509722 0.202438 0.168477
834 1 0.657212 0.140573 0.909184
835 1 0.973729 0.183705 0.801424
836 1 0.806993 0.780657 0.21124
837 1 0.730075 0.810461 0.926902
838 1 0.880194 0.18646 0.350359
839 1 0.0017623 0.0936488 0.161102
840 1 0.976041 0.0745741 0.278101
841 1 0.202001 0.00226736 0.607832
842 1 0.167227 0.827384 0.618772
843 1 0.143144 0.993602 0.22268
844 1 0.432918 0.809015 0.987824
845 1 0.704369 0.391765 0.144619
846 1 0.146578 0.941789 0.0589324
847 1 0.902977 0.840397 0.826102
848 1 0.0643916 0.600589 0.961734
849 1 0.0975246 0.177367 0.785079
850 1 0.126867 0.122357 0.97742
851 1 0.432139 0.936328 0.792323
852 1 0.121562 0.779188 0.0513793
853 1 0.143402 0.741659 0.909573
854 1 0.467901 0.326109 0.0586369
855 1 0.0145876 0.149438 0.770113
856 1 0.314072 0.133518 0.660441
857 1 0.10993 0.461066 0.368512
858 1 0.631429 0.44613 0.0659366
859 1 0.83796 0.94611 0.618994
860 1 0.571273 0.37114 0.56309
861 1 0.793506 0.194499 0.212261
862 1 0.55234 0.392124 0.301851
863 1 0.695636 0.96323 0.425922
864 1 0.414167 0.338203 0.493687
865 1 0.769769 0.232213 0.160109
866 1 0.113045 0.10044 0.804762
867 1 0.0822235 0.145761 0.0972826
868 1 0.807037 0.194691 0.402281
869 1 0.0789412 0.15064 0.268747
870 1 0.277172 0.101841 0.160908
871 1 0.936569 0.0937381 0.169843
872 1 0.362032 0.0206063 0.146318
873 1 0.841469 0.293947 0.79036
874 1 0.852489 0.266073 0.268712
875 1 0.557511 0.617617 0.313114
876 1 0.86141 0.805644 0.794104
877 1 0.730273 0.650602 0.375238
878 1 0.980382 0.0662852 0.992979
879 1 0.0491667 0.205428 0.0707989
880 1 0.0294878 0.893122 0.302313
881 1 0.676676 0.708691 0.544955
882 1 0.813581 0.347373 0.900973
883 1 0.220021 0.246029 0.517842
884 1 0.865741 0.653982 0.206856
885 1 0.0109517 0.722776 0.398727
886 1 0.834349 0.236939 0.584154
887 1 0.959962 0.116073 0.936104
888 1 0.663719 0.158672 0.134523
889 1 0.0532399 0.429319 0.112022
890 1 0.902266 0.446296 0.941002
891 1 0.458115 0.537028 0.867964
892 1 0.717649 0.0982575 0.914093
893 1 0.0769953 0.376528 0.869621
894 1 0.953732 0.554759 0.606789
895 1 0.653803 0.341034 0.619074
896 1 0.981462 0.109124 0.758686
897 1 0.249469 0.085167 0.864984
898 1 0.858212 0.322963 0.206966
899 1 0.52399 0.890755 0.0466749
900 1 0.265239 0.29195 0.517334
901 1 0.406913 0.282014 0.59949
902 1 0.430423 0.410661 0.170964
903 1 0.420226 0.778415 0.322897
904 1 0.57116 0.95282 0.582004
905 1 0.715147 0.998471 0.144493