ITEM: TIMESTEP
68900
ITEM: NUMBER OF ATOMS
4000
ITEM: BOX BOUNDS pp pp pp
0.0000000000000000e+00 1.6795961913825074e+01
0.0000000000000000e+00 1.6795961913825074e+01
0.0000000000000000e+00 1.6795961913825074e+01
ITEM: ATOMS id type xs ys zs
1 1 0.802472 0.599521 0.607587
2 1 0.111695 0.779558 0.173457
3 1 0.828532 0.668496 0.268244
4 1 0.589058 0.7268 0.817409
5 1 0.637166 0.456031 0.299107
6 1 0.868725 0.604942 0.60943
7 1 0.659975 0.187902 0.851326
8 1 0.407286 0.306773 0.0837779
9 1 0.351117 0.262931 0.443334
10 1 0.0755002 0.11948 0.43411
11 1 0.386227 0.774972 0.0806221
12 1 0.359968 0.753952 0.200778
13 1 0.0541718 0.183708 0.421502
14 1 0.192737 0.495328 0.0388499
15 1 0.422019 0.812193 0.10964
16 1 0.51064 0.866614 0.442386
17 1 0.147778 0.332212 0.724635
18 1 0.466016 0.959792 0.0343563
19 1 0.546401 0.754846 0.628365
20 1 0.604308 0.298352 0.0227775
21 1 0.193889 0.867382 0.735607
22 1 0.321718 0.332308 0.303557
23 1 0.671898 0.603804 0.347773
24 1 0.67811 0.129789 0.894673
25 1 0.999008 0.984745 0.242154
26 1 0.736926 0.302581 0.279335
27 1 0.145654 0.98963 0.274634
28 1 0.392178 0.561492 0.935022
29 1 0.316727 0.552475 0.125489
30 1 0.209734 0.88464 0.878147
31 1 0.488978 0.819324 0.0702499
32 1 0.611574 0.974459 0.230268
33 1 0.871096 0.91567 0.328814
34 1 0.606378 0.975325 0.831911
35 1 0.976807 0.0339543 0.38012
36 1 0.270302 0.25661 0.461402
37 1 0.369992 0.902545 0.98455
38 1 0.687154 0.867568 0.0137753
39 1 0.382539 0.0300875 0.179798
40 1 0.0641694 0.24948 0.436558
41 1 0.604742 0.996605 0.413467
42 1 0.81599 0.904776 0.676562
43 1 0.951692 0.436641 0.500497
44 1 0.933218 0.413449 0.138792
45 1 0.710691 0.0100619 0.914677
46 1 0.97919 0.389348 0.433047
47 1 0.394774 0.499017 0.0301782
48 1 0.0228228 0.377737 0.325096
49 1 0.166389 0.21245 0.714306
50 1 0.768362 0.657025 0.274323
51 1 0.565205 0.399784 0.234533
52 1 0.512331 0.211881 0.404113
53 1 0.298521 0.0779283 0.373504
54 1 0.976914 0.668556 0.847214
55 1 0.1375 0.254316 0.433564
56 1 0.162978 0.384342 0.442435
57 1 0.266132 0.342484 0.58606
58 1 0.480547 0.460849 0.297291
59 1 0.53969 0.520297 0.566369
60 1 0.519323 0.163884 0.31405
61 1 0.93062 0.721144 0.884288
62 1 0.959997 0.538625 0.430434
63 1 0.714613 0.0570386 0.218891
64 1 0.420212 0.264485 0.192608
65 1 0.504182 0.411245 0.924436
66 1 0.519535 0.780936 0.101061
67 1 0.0855491 0.487605 0.792743
68 1 0.89361 0.626872 0.216514
69 1 0.22933 0.742567 0.282885
70 1 0.390864 0.028948 0.898277
71 1 0.309186 0.208029 0.19996
72 1 0.226033 0.848407 0.296315
73 1 0.390218 0.204337 0.868551
74 1 0.446504 0.69532 0.270828
75 1 0.601236 0.474986 0.864893
76 1 0.689091 0.521566 0.175803
77 1 0.316151 0.0810748 0.251382
78 1 0.866336 0.675829 0.716401
79 1 0.972008 0.896196 0.251943
80 1 0.0655528 0.168408 0.201161
81 1 0.862391 0.107216 0.830841
82 1 0.993498 0.560315 0.637802
83 1 0.140762 0.888018 0.69065
84 1 0.384764 0.322299 0.975416
85 1 0.761677 0.367095 0.613603
86 1 0.757677 0.062197 0.0875298
87 1 0.760163 0.491152 0.0588131
88 1 0.105337 0.00835363 0.884512
89 1 0.211319 0.680144 0.370948
90 1 0.845437 0.110737 0.462335
91 1 0.0450466 0.166104 0.681718
92 1 0.0920456 0.648222 0.022731
93 1 0.462059 0.866717 0.954636
94 1 0.197377 0.975165 0.598611
95 1 0.335523 0.914094 0.896875
96 1 0.633362 0.389788 0.129568
97 1 0.144641 0.283241 0.320136
98 1 0.250381 0.0222536 0.402529
99 1 0.187632 0.935261 0.521481
100 1 0.859008 0.0311774 0.41754
101 1 0.625209 0.980775 0.506839
102 1 0.452315 0.942633 0.355529
103 1 0.853939 0.62111 0.171167
104 1 0.198437 0.997149 0.00428201
105 1 0.800399 0.398508 0.868648
106 1 0.149219 0.24488 0.654183
107 1 0.599991 0.726094 0.753663
108 1 0.789725 0.0902976 0.287302
109 1 0.515572 0.903291 0.596391
110 1 0.593599 0.785826 0.465161
111 1 0.413311 0.00596735 0.00159318
112 1 0.72729 0.992158 0.43216
113 1 0.380622 0.316025 0.22366
114 1 0.711605 0.292641 0.957429
115 1 0.577846 0.0763586 0.294248
116 1 0.165566 0.449654 0.637842
117 1 0.455038 0.395467 0.0372676
118 1 0.305885 0.111377 0.672955
119 1 0.0376937 0.0336237 0.234807
120 1 0.560884 0.660371 0.00475132
121 1 0.812857 0.790676 0.125507
122 1 0.181839 0.56857 0.123364
123 1 0.964056 0.663559 0.91375
124 1 0.398215 0.56702 0.724765
125 1 0.502882 0.531639 0.455027
126 1 0.129953 0.52469 0.314444
127 1 0.151208 0.742735 0.780359
128 1 0.849579 0.822142 0.840737
129 1 0.946104 0.443162 0.74522
130 1 0.802242 0.548019 0.393115
131 1 0.15767 0.659797 0.140835
132 1 0.405475 0.645941 0.203453
133 1 0.304309 0.809544 0.889575
134 1 0.835323 0.451982 0.857013
135 1 0.509919 0.387998 0.124078
136 1 0.400494 0.913574 0.900955
137 1 0.526986 0.0485538 0.247589
138 1 0.279079 0.759674 0.412754
139 1 0.871681 0.572267 0.0568528
140 1 0.664842 0.0390223 0.665546
141 1 0.963041 0.374277 0.626644
142 1 0.777164 0.0928799 0.174743
143 1 0.196821 0.20947 0.667707
144 1 0.612514 0.496456 0.552035
145 1 0.985481 0.290187 0.257392
146 1 0.725383 0.899494 0.148414
147 1 0.984321 0.304598 0.954014
148 1 0.298003 0.321538 0.165489
149 1 0.762326 0.441365 0.173502
150 1 0.768212 0.578009 0.340885
151 1 0.812687 0.870939 0.226251
152 1 0.610081 0.794497 0.0317763
153 1 0.554388 0.455895 0.698409
154 1 0.220159 0.333904 0.0233323
155 1 0.687868 0.0657186 0.320864
156 1 0.974193 0.977681 0.587146
157 1 0.681366 0.0797713 0.0228041
158 1 0.0266665 0.290036 0.61645
159 1 0.454091 0.971764 0.0949906
160 1 0.195809 0.0875522 0.0054831
161 1 0.797003 0.349654 0.246887
162 1 0.797415 0.611082 0.99271
163 1 0.0445585 0.0817352 0.189194
164 1 0.883934 0.725956 0.551655
165 1 0.908828 0.603364 0.139633
166 1 0.615511 0.0980775 0.17935
167 1 0.973038 0.150195 0.235167
168 1 0.973656 0.656425 0.665434
169 1 0.98556 0.663356 0.0125259
170 1 0.0986279 0.379331 0.700857
171 1 0.318875 0.388197 0.201621
172 1 0.128292 0.470809 0.402574
173 1 0.0275513 0.753612 0.883621
174 1 0.975132 0.55907 0.185098
175 1 0.390483 0.427515 0.234594
176 1 0.0562499 0.806898 0.637645
177 1 0.870442 0.529784 0.886657
178 1 0.649685 0.865693 0.263742
179 1 0.389007 0.666923 0.853824
180 1 0.921719 0.753859 0.241117
181 1 0.0245666 0.664852 0.362759
182 1 0.598512 0.455779 0.625413
183 1 0.148252 0.242747 0.36551
184 1 0.67026 0.705082 0.05696
185 1 0.0142302 0.89708 0.329267
186 1 0.00725764 0.351477 0.471207
187 1 0.357139 0.447677 0.993963
188 1 0.110364 0.44972 0.89411
189 1 0.870459 0.693024 0.228549
190 1 0.385322 0.603089 0.998463
191 1 0.465419 0.165678 0.799166
192 1 0.88774 0.718883 0.355517
193 1 0.62948 0.968085 0.973856
194 1 0.977507 0.816981 0.987427
195 1 0.466283 0.225712 0.193692
196 1 0.769647 0.575767 0.202539
197 1 0.562534 0.273244 0.338091
198 1 0.339589 0.66918 0.650573
199 1 0.353546 0.686946 0.776647
200 1 0.808186 0.894806 0.406216
201 1 0.210351 0.243533 0.904363
202 1 0.991881 0.865652 0.116354
203 1 0.17022 0.614194 0.0159041
204 1 0.000880482 0.325379 0.00241824
205 1 0.479496 0.337097 0.599452
206 1 0.533131 0.549044 0.126871
207 1 0.0261841 0.993596 0.135605
208 1 0.255996 0.726464 0.937169
209 1 0.0249147 0.47521 0.357072
210 1 0.478921 0.787401 0.250457
211 1 0.0476409 0.35414 0.586071
212 1 0.858446 0.958131 0.617602
213 1 0.525885 0.850391 0.905943
214 1 0.091985 0.95912 0.755704
215 1 0.750374 0.152584 0.0252261
216 1 0.956617 0.804398 0.21564
217 1 0.178114 0.328538 0.269529
218 1 0.459269 0.122123 0.163674
219 1 0.420406 0.738655 0.231719
220 1 0.486508 0.930146 0.526975
221 1 0.301386 0.831908 0.771385
222 1 0.232936 0.675522 0.638336
223 1 0.739545 0.549823 0.262919
224 1 0.401244 0.720051 0.850706
225 1 0.533981 0.977067 0.0184345
226 1 0.233318 0.00879367 0.0605845
227 1 0.429284 0.0708065 0.182533
228 1 0.241675 0.4142 0.0163044
229 1 0.315871 0.224793 0.785334
230 1 0.217885 0.99559 0.355613
231 1 0.691629 0.408709 0.0609358
232 1 0.93388 0.150759 0.302887
233 1 0.0191362 0.578872 0.0464268
234 1 0.00539315 0.143577 0.42405
235 1 0.849675 0.134809 0.0535129
236 1 0.789207 0.287184 0.254412
237 1 0.673181 0.317243 0.703031
238 1 0.406012 0.755909 0.897575
239 1 0.622436 0.375348 0.0370164
240 1 0.748013 0.427533 0.0715382
241 1 0.754169 0.767215 0.938088
242 1 0.486926 0.626226 0.793619
243 1 0.763771 0.113376 0.628326
244 1 0.302144 0.877098 0.331641
245 1 0.000528646 0.849996 0.811122
246 1 0.0921603 0.739858 0.859582
247 1 0.178669 0.965278 0.0687762
248 1 0.603056 0.685258 0.944249
249 1 0.258917 0.157439 0.187421
250 1 0.875041 0.690774 0.984624
251 1 0.375084 0.741826 0.766262
252 1 0.958843 0.969344 0.284774
253 1 0.392894 0.959011 0.564332
254 1 0.22115 0.432109 0.835882
255 1 0.281425 0.173586 0.296791
256 1 0.363814 0.371542 0.248124
257 1 0.258863 0.541236 0.212529
258 1 0.578518 0.529368 0.613928
259 1 0.363027 0.280055 0.939288
260 1 0.236364 0.564872 0.302748
261 1 0.275068 0.472257 0.222624
262 1 0.573887 0.502977 0.0430938
263 1 0.251439 0.623534 0.306445
264 1 0.291539 0.561782 0.00982303
265 1 0.532772 0.467737 0.124159
266 1 0.311196 0.566765 0.575216
267 1 0.153758 0.306739 0.0292919
268 1 0.702298 0.0199559 0.364358
269 1 0.104879 0.121439 0.166041
270 1 0.421137 0.766133 0.144251
271 1 0.532752 0.151671 0.557423
272 1 0.36613 0.180561 0.0543672
273 1 0.482526 0.123398 0.722106
274 1 0.758739 0.317327 0.900343
275 1 0.281482 0.0382535 0.503857
276 1 0.0711786 0.800913 0.478648
277 1 0.81132 0.310368 0.193676
278 1 0.668159 0.558556 0.758541
279 1 0.43171 0.18431 0.3922
280 1 0.243144 0.945784 0.0536897
281 1 0.707966 0.930615 0.494002
282 1 0.164167 0.609611 0.794029
283 1 0.486974 0.935125 0.819366
284 1 0.458655 0.67084 0.508663
285 1 0.642081 0.670959 0.5682
286 1 0.852123 0.769879 0.75816
287 1 0.195127 0.215636 0.399995
288 1 0.151783 0.51096 0.641029
289 1 0.669217 0.663206 0.297284
290 1 0.74765 0.773004 0.121551
291 1 0.165339 0.828081 0.402367
292 1 0.61334 0.165838 0.877276
293 1 0.292465 0.778564 0.286248
294 1 0.835367 0.668434 0.902562
295 1 0.266975 0.405896 0.171752
296 1 0.982622 0.457537 0.792977
297 1 0.810613 0.699119 0.84016
298 1 0.326684 0.982898 0.360344
299 1 0.144465 0.0933071 0.242925
300 1 0.83868 0.606683 0.499412
301 1 0.251842 0.204421 0.568555
302 1 0.499281 0.367957 0.0596194
303 1 0.376871 0.956184 0.340713
304 1 0.984322 0.383116 0.745812
305 1 0.764547 0.825887 0.913986
306 1 0.571075 0.512333 0.678817
307 1 0.3304 0.483882 0.125255
308 1 0.383309 0.929945 0.628663
309 1 0.570472 0.405893 0.56602
310 1 0.570937 0.0511418 0.718023
311 1 0.0874328 0.685046 0.154007
312 1 0.372256 0.24374 0.312161
313 1 0.307734 0.493435 0.997965
314 1 0.954554 0.778182 0.609296
315 1 0.434524 0.0165212 0.151712
316 1 0.656132 0.172357 0.734143
317 1 0.703217 0.801307 0.705264
318 1 0.55615 0.589365 0.966155
319 1 0.3296 0.530147 0.772303
320 1 0.611335 0.67381 0.0573045
321 1 0.143901 0.98945 0.481836
322 1 0.770793 0.817926 0.305019
323 1 0.328287 0.412301 0.486125
324 1 0.124514 0.813137 0.362908
325 1 0.102956 0.828476 0.303148
326 1 0.346013 0.566065 0.415649
327 1 0.320852 0.827383 0.548965
328 1 0.923744 0.771672 0.360977
329 1 0.389967 0.61366 0.378878
330 1 0.831059 0.333142 0.621475
331 1 0.252034 0.521649 0.344659
332 1 0.408736 0.0526434 0.733457
333 1 0.665915 0.65156 0.241115
334 1 0.993449 0.833383 0.320952
335 1 0.75866 0.052766 0.497871
336 1 0.518459 0.862198 0.124235
337 1 0.773117 0.568553 0.101528
338 1 0.436975 0.864749 0.0507464
339 1 0.262008 0.471219 0.852861
340 1 0.932206 0.94469 0.493842
341 1 0.331242 0.710802 0.337392
342 1 0.495244 0.0376102 0.190059
343 1 0.803716 0.581421 0.456003
344 1 0.452722 0.0154697 0.0425689
345 1 0.0253529 0.966166 0.038276
346 1 0.323731 0.716582 0.466253
347 1 0.458842 0.150296 0.989564
348 1 0.869025 0.209512 0.968305
349 1 0.541904 0.868468 0.385923
350 1 0.933181 0.689841 0.2325
351 1 0.559714 0.961746 0.46557
352 1 0.760578 0.837432 0.705342
353 1 0.173294 0.647857 0.676
354 1 0.481123 0.798281 0.0122428
355 1 0.00320448 0.871094 0.957411
356 1 0.864947 0.482059 0.656196
357 1 0.459422 0.168392 0.278114
358 1 0.445831 0.328211 0.399878
359 1 0.0761824 0.340431 0.992168
360 1 0.015514 0.263597 0.383302
361 1 0.133853 0.192136 0.0553416
362 1 0.76071 0.343048 0.976625
363 1 0.8426 0.941933 0.810048
364 1 0.695017 0.216826 0.000994298
365 1 0.253877 0.871468 0.632823
366 1 0.200994 0.630768 0.745881
367 1 0.86917 0.0656816 0.639476
368 1 0.871487 0.285137 0.518442
369 1 0.523573 0.958712 0.769851
370 1 0.873844 0.544904 0.827927
371 1 0.34426 0.752767 0.131094
372 1 0.745567 0.249149 0.0838434
373 1 0.441569 0.652324 0.37729
374 1 0.667632 0.517078 0.0160921
375 1 0.228953 0.545115 0.00237808
376 1 0.255293 0.698038 0.424605
377 1 0.125786 0.681888 0.872816
378 1 0.179725 0.209881 0.236161
379 1 0.137278 0.273053 0.504092
380 1 0.932486 0.793581 0.861084
381 1 0.989954 0.95423 0.856765
382 1 0.598563 0.0254674 0.0449393
383 1 0.138588 0.0797212 0.918317
384 1 0.960293 0.187762 0.0529447
385 1 0.420052 0.991434 0.93517
386 1 0.296764 0.437641 0.111493
387 1 0.0795256 0.116709 0.911699
388 1 0.445297 0.158345 0.572227
389 1 0.128061 0.446637 0.691913
390 1 0.881094 0.360889 0.967415
391 1 0.0790197 0.00430009 0.145388
392 1 0.0905942 0.0716705 0.625004
393 1 0.347608 0.593436 0.467728
394 1 0.413371 0.351177 0.689346
395 1 0.318306 0.373495 0.138377
396 1 0.670047 0.195646 0.0582116
397 1 0.132176 0.401458 0.752806
398 1 0.0543937 0.36789 0.280854
399 1 0.340423 0.106939 0.34522
400 1 0.737529 0.117861 0.0662372
401 1 0.946647 0.251933 0.807754
402 1 0.211706 0.911474 0.678755
403 1 0.857948 0.843062 0.299343
404 1 0.667269 0.319675 0.357083
405 1 0.616939 0.165787 0.243553
406 1 0.612912 0.0388147 0.83502
407 1 0.329176 0.770305 0.457386
408 1 0.599531 0.943565 0.545814
409 1 0.929489 0.110873 0.203484
410 1 0.0875624 0.0710711 0.236028
411 1 0.0701774 0.881562 0.308338
412 1 0.509219 0.231186 0.587981
413 1 0.567977 0.226382 0.052902
414 1 0.0569627 0.972081 0.965379
415 1 0.759438 0.263228 0.81433
416 1 0.168258 0.0422492 0.247749
417 1 0.126097 0.485919 0.0812946
418 1 0.304011 0.51382 0.180418
419 1 0.721856 0.853827 0.771287
420 1 0.390641 0.533313 0.556173
421 1 0.473336 0.405434 0.31891
422 1 0.601897 0.0266345 0.474812
423 1 0.607564 0.224636 0.100125
424 1 0.656778 0.0280374 0.215143
425 1 0.992863 0.99021 0.422659
426 1 0.570978 0.0769314 0.443675
427 1 0.635112 0.663076 0.412129
428 1 0.143918 0.795273 0.942107
429 1 0.858514 0.811915 0.0830294
430 1 0.491693 0.279745 0.240474
431 1 0.898468 0.85125 0.128352
432 1 0.147631 0.28735 0.594121
433 1 0.00196102 0.0379214 0.552802
434 1 0.832721 0.995639 0.553952
435 1 0.972355 0.420862 0.287761
436 1 0.0312677 0.234205 0.943965
437 1 0.385593 0.0443388 0.436315
438 1 0.339842 0.60117 0.77068
439 1 0.465885 0.465515 0.876118
440 1 0.140791 0.563439 0.171571
441 1 0.917016 0.0724009 0.390673
442 1 0.150564 0.903084 0.0785409
443 1 0.81089 0.106612 0.350398
444 1 0.278526 0.125838 0.605039
445 1 0.0149579 0.166211 0.780552
446 1 0.908687 0.0334402 0.167772
447 1 0.552755 0.123899 0.719991
448 1 0.86966 0.26756 0.647286
449 1 0.11025 0.263529 0.183206
450 1 0.25287 0.563372 0.829692
451 1 0.796767 0.514709 0.992495
452 1 0.638872 0.222238 0.22529
453 1 0.112833 0.401493 0.024586
454 1 0.177941 0.196004 0.0018279
455 1 0.174404 0.613982 0.178315
456 1 0.632173 0.924725 0.766605
457 1 0.903565 0.0793542 0.520249
458 1 0.459757 0.481989 0.56644
459 1 0.730661 0.917125 0.00669362
460 1 0.974225 0.0768684 0.858359
461 1 0.37173 0.897409 0.527608
462 1 0.128856 0.147344 0.0197209
463 1 0.175935 0.483505 0.446623
464 1 0.082475 0.588132 0.90367
465 1 0.80219 0.266691 0.624587
466 1 0.86367 0.0970105 0.379936
467 1 0.905398 0.918401 0.811303
468 1 0.470186 0.160166 0.674149
469 1 0.0755553 0.111507 0.577323
470 1 0.0892332 0.932383 0.702359
471 1 0.866187 0.108566 0.253565
472 1 0.733915 0.560438 0.153863
473 1 0.00501619 0.148936 0.0740337
474 1 0.305686 0.931928 0.737942
475 1 0.459305 0.795793 0.307273
476 1 0.758022 0.0364049 0.948596
477 1 0.553994 0.989449 0.226428
478 1 0.484429 0.30703 0.292116
479 1 0.809414 0.178439 0.744135
480 1 0.408531 0.245199 0.978615
481 1 0.308819 0.2164 0.95666
482 1 0.90368 0.111102 0.905793
483 1 0.179118 0.839698 0.0802469
484 1 0.322752 0.961093 0.279234
485 1 0.812324 0.381368 0.583545
486 1 0.835553 0.423467 0.995542
487 1 0.926027 0.729645 0.116479
488 1 0.113335 0.0309712 0.00555196
489 1 0.752354 0.164864 0.892183
490 1 0.231849 0.38809 0.749223
491 1 0.525041 0.696689 0.663174
492 1 0.37028 0.0743307 0.300634
493 1 0.193784 0.884209 0.492404
494 1 0.299818 0.00505115 0.867816
495 1 0.377333 0.047742 0.613905
496 1 0.323772 0.642315 0.00568582
497 1 0.273097 0.710175 0.135422
498 1 0.855185 0.979535 0.339377
499 1 0.979286 0.991543 0.179246
500 1 0.435874 0.654354 0.782748
501 1 0.340713 0.00713815 0.308732
502 1 0.330749 0.0204281 0.115812
503 1 0.446895 0.598413 0.0124154
504 1 0.827902 0.765771 0.0707
505 1 0.699849 0.471766 0.470002
506 1 0.428795 0.162784 0.453542
507 1 0.20368 0.545236 0.738685
508 1 0.629728 0.00502204 0.102403
509 1 0.541739 0.302635 0.162651
510 1 0.440639 0.959501 0.193391
511 1 0.134672 0.779088 0.059283
512 1 0.912693 0.443896 0.196794
513 1 0.671335 0.33219 0.421524
514 1 0.438204 0.0743704 0.447698
515 1 0.49653 0.912074 0.198141
516 1 0.756192 0.398194 0.123934
517 1 0.512029 0.35846 0.870262
518 1 0.49865 0.665487 0.742732
519 1 0.296286 0.590896 0.288276
520 1 0.321729 0.670723 0.708589
521 1 0.667665 0.39161 0.99922
522 1 0.949211 0.281746 0.369271
523 1 0.936156 0.197158 0.102212
524 1 0.955496 0.116819 0.089003
525 1 0.841064 0.730841 0.69773
526 1 0.358508 0.386311 0.945984
527 1 0.172811 0.539125 0.970839
528 1 0.126255 0.375926 0.811847
529 1 0.959467 0.314821 0.431245
530 1 0.665041 0.451747 0.851747
531 1 0.0956528 0.366528 0.390021
532 1 0.0770566 0.260331 0.594744
533 1 0.762523 0.555504 0.0303706
534 1 0.538552 0.0233397 0.449494
535 1 0.181454 0.350551 0.145061
536 1 0.381499 0.0622046 0.503318
537 1 0.37917 0.354907 0.76005
538 1 0.283255 0.613476 0.0336526
539 1 0.306674 0.628372 0.864341
540 1 0.506925 0.685978 0.906271
541 1 0.566943 0.410395 0.850114
542 1 0.510094 0.6282 0.999387
543 1 0.59517 0.204552 0.65139
544 1 0.757836 0.404782 0.213885
545 1 0.409312 0.479954 0.257798
546 1 0.31806 0.466952 0.451731
547 1 0.492531 0.564982 0.798366
548 1 0.0380045 0.177638 0.118444
549 1 0.763405 0.66631 0.783309
550 1 0.819129 0.820922 0.341969
551 1 0.981706 0.252308 0.322283
552 1 0.0335336 0.213332 0.236959
553 1 0.890627 0.368337 0.105874
554 1 0.757842 0.563374 0.620917
555 1 0.813599 0.509339 0.207742
556 1 0.0300941 0.921916 0.928914
557 1 0.156142 0.341226 0.624416
558 1 0.884611 0.161989 0.787523
559 1 0.865564 0.944678 0.995644
560 1 0.894295 0.211069 0.600694
561 1 0.841814 0.994328 0.660956
562 1 0.872351 0.33362 0.285926
563 1 0.0276898 0.435463 0.104439
564 1 0.397124 0.805418 0.308044
565 1 0.035723 0.642825 0.209915
566 1 0.465536 0.720062 0.596826
567 1 0.356159 0.164072 0.486455
568 1 0.863893 0.5983 0.729101
569 1 0.892382 0.0201013 0.680899
570 1 0.924502 0.492394 0.916797
571 1 0.16056 0.865212 0.0311612
572 1 0.269047 0.933326 0.861117
573 1 0.138241 0.570101 0.235801
574 1 0.444422 0.380062 0.637127
575 1 0.0673007 0.626798 0.374961
576 1 0.118125 0.915563 0.958975
577 1 0.069333 0.281352 0.107367
578 1 0.206276 0.311108 0.761632
579 1 0.228253 0.468052 0.136921
580 1 0.857348 0.465309 0.912507
581 1 0.198978 0.511272 0.860561
582 1 0.51574 0.186136 0.952123
583 1 0.332985 0.149153 0.0881866
584 1 0.984004 0.479011 0.202671
585 1 0.297293 0.603962 0.711284
586 1 0.0197735 0.273429 0.895591
587 1 0.210245 0.944398 0.473153
588 1 0.877415 0.116199 0.318534
589 1 0.0365904 0.506958 0.661128
590 1 0.17575 0.248499 0.042574
591 1 0.517637 0.108518 0.0923991
592 1 0.660959 0.645174 0.0273803
593 1 0.65507 0.250708 0.652217
594 1 0.89928 0.232974 0.363956
595 1 0.235841 0.633805 0.923282
596 1 0.948336 0.178628 0.61377
597 1 0.999538 0.852651 0.904395
598 1 0.359815 0.540212 0.171988
599 1 0.775754 0.957121 0.0345204
600 1 0.608609 0.743668 0.60873
601 1 0.948208 0.23762 0.203177
602 1 0.447297 0.942265 0.660177
603 1 0.295601 0.885492 0.796737
604 1 0.583528 0.769041 0.95938
605 1 0.127405 0.928246 0.519162
606 1 0.322125 0.295409 0.055233
607 1 0.789006 0.564628 0.943453
608 1 0.243011 0.257108 0.140289
609 1 0.198292 0.825045 0.970355
610 1 0.063976 0.364718 0.212085
611 1 0.716567 0.723187 0.272673
612 1 0.438269 0.609872 0.104746
613 1 0.253163 0.869945 0.462028
614 1 0.208851 0.402467 0.116888
615 1 0.58629 0.861536 0.541033
616 1 0.101226 0.537058 0.766108
617 1 0.362891 0.472061 0.764695
618 1 0.302113 0.495355 0.725594
619 1 0.167546 0.571895 0.293336
620 1 0.0974306 0.74641 0.375349
621 1 0.849022 0.399785 0.249763
622 1 0.413403 0.268139 0.521427
623 1 0.795564 0.388041 0.173514
624 1 0.385916 0.359511 0.631493
625 1 0.143405 0.705437 0.434621
626 1 0.412194 0.433334 0.884042
627 1 0.926527 0.380275 0.778642
628 1 0.048106 0.459891 0.190451
629 1 0.832191 0.979064 0.26127
630 1 0.509112 0.81507 0.411586
631 1 0.673989 0.806548 0.2596
632 1 0.767115 0.812978 0.986994
633 1 0.895818 0.205065 0.513374
634 1 0.147069 0.385116 0.323738
635 1 0.858394 0.565975 0.291681
636 1 0.684713 0.765154 0.146755
637 1 0.808323 0.110959 0.716556
638 1 0.662315 0.948427 0.122834
639 1 0.755924 0.0831876 0.803799
640 1 0.332742 0.979478 0.422074
641 1 0.300102 0.525451 0.858679
642 1 0.853021 0.679043 0.499306
643 1 0.580824 0.542026 0.230312
644 1 0.854717 0.432607 0.0769327
645 1 0.143253 0.822288 0.476043
646 1 0.548723 0.622224 0.143815
647 1 0.649716 0.11397 0.312622
648 1 0.611277 0.700864 0.481755
649 1 0.102096 0.91618 0.014656
650 1 0.97972 0.403531 0.105721
651 1 0.174498 0.861586 0.13387
652 1 0.577936 0.804182 0.364805
653 1 0.71771 0.672657 0.245849
654 1 0.947398 0.0584898 0.0476624
655 1 0.459246 0.628252 0.191189
656 1 0.442762 0.629368 0.834708
657 1 0.292531 0.0192446 0.263067
658 1 0.960764 0.599736 0.670849
659 1 0.334341 0.36047 0.872838
660 1 0.497247 0.646602 0.860121
661 1 0.130101 0.628476 0.84353
662 1 0.0549515 0.569368 0.407859
663 1 0.397628 0.814377 0.198776
664 1 0.0999232 0.767209 0.969223
665 1 0.862924 0.570754 0.440706
666 1 0.0856502 0.918946 0.181643
667 1 0.413907 0.343925 0.516798
668 1 0.180741 0.351189 0.210861
669 1 0.82978 0.249493 0.0863807
670 1 0.727989 0.424697 0.48912
671 1 0.56304 0.415332 0.913789
672 1 0.758725 0.000335072 0.108561
673 1 0.753318 0.721301 0.547846
674 1 0.228636 0.690032 0.0286703
675 1 0.365282 0.0759299 0.136865
676 1 0.367758 0.363022 0.462268
677 1 0.63612 0.449618 0.975318
678 1 0.831055 0.766683 0.812358
679 1 0.0603668 0.978855 0.245097
680 1 0.898196 0.871452 0.253957
681 1 0.450177 0.759734 0.707001
682 1 0.92985 0.997465 0.633345
683 1 0.404241 0.911889 0.781491
684 1 0.759455 0.0964972 0.397464
685 1 0.91536 0.745194 0.951754
686 1 0.0549672 0.500723 0.30399
687 1 0.956964 0.563327 0.56595
688 1 0.00676123 0.263583 0.996009
689 1 0.344227 0.393478 0.813861
690 1 0.254266 0.222718 0.76897
691 1 0.851001 0.068224 0.538723
692 1 0.578243 0.759555 0.680067
693 1 0.451144 0.664926 0.00601232
694 1 0.27465 0.0980302 0.214111
695 1 0.94976 0.194198 0.813013
696 1 0.340983 0.821453 0.486539
697 1 0.698065 0.20159 0.231651
698 1 0.99203 0.584141 0.809127
699 1 0.656751 0.837736 0.973077
700 1 0.704757 0.854519 0.299471
701 1 0.481899 0.737537 0.50263
702 1 0.0638431 0.061679 0.893352
703 1 0.276965 0.660473 0.377
704 1 0.741532 0.701321 0.831677
705 1 0.904003 0.916273 0.214616
706 1 0.73128 0.400841 0.438348
707 1 0.811135 0.236335 0.515794
708 1 0.768589 0.208794 0.844698
709 1 0.0283736 0.276066 0.0532935
710 1 0.8839 0.801711 0.0229051
711 1 0.0629049 0.0245342 0.978858
712 1 0.918455 0.741364 0.799198
713 1 0.344233 0.527379 0.468588
714 1 0.930119 0.548603 0.888164
715 1 0.356513 0.575128 0.614905
716 1 0.242835 0.617277 0.86575
717 1 0.292637 0.991669 0.573472
718 1 0.273178 0.9942 0.698321
719 1 0.931752 0.235702 0.554043
720 1 0.921067 0.773009 0.748889
721 1 0.984073 0.863234 0.558405
722 1 0.309132 0.846901 0.0493641
723 1 0.534142 0.817838 0.245097
724 1 0.621561 0.741831 0.437648
725 1 0.698799 0.00596369 0.0877995
726 1 0.251094 0.228826 0.694199
727 1 0.137104 0.0771346 0.3627
728 1 0.748705 0.511875 0.203568
729 1 0.723471 0.300381 0.568287
730 1 0.367789 0.543759 0.82573
731 1 0.340359 0.642627 0.235124
732 1 0.942956 0.605615 0.190646
733 1 0.434188 0.772077 0.475086
734 1 0.943256 0.843317 0.766661
735 1 0.992932 0.212647 0.141776
736 1 0.319345 0.787531 0.236445
737 1 0.18962 0.674758 0.852019
738 1 0.275485 0.825819 0.659871
739 1 0.544234 0.633223 0.0845116
740 1 0.217415 0.786662 0.0754142
741 1 0.787848 0.387639 0.691714
742 1 0.573226 0.378314 0.410635
743 1 1.00011 0.317608 0.330628
744 1 0.553173 0.30398 0.573569
745 1 0.505723 0.834575 0.661461
746 1 0.705129 0.114947 0.135294
747 1 0.152439 0.355757 0.391719
748 1 0.113646 0.539609 0.596047
749 1 0.597343 0.338986 0.930734
750 1 0.0527685 0.418946 0.378979
751 1 0.995003 0.80833 0.862198
752 1 0.975811 0.420039 0.18892
753 1 0.401082 0.998132 0.308091
754 1 0.939171 0.584357 0.759683
755 1 0.907255 0.411541 0.322112
756 1 0.159835 0.423807 0.490973
757 1 0.613171 0.869035 0.436201
758 1 0.861029 0.937508 0.71124
759 1 0.324347 0.0873492 0.100304
760 1 0.831264 0.199714 0.817554
761 1 0.817272 0.545187 0.712454
762 1 0.103829 0.211466 0.229655
763 1 0.138317 0.495017 0.0247738
764 1 0.331578 0.269604 0.193345
765 1 0.854422 0.12718 0.941175
766 1 0.0823322 0.162919 0.084326
767 1 0.573198 0.56299 0.0786185
768 1 0.0102964 0.834918 0.440993
769 1 0.952952 0.968597 0.808903
770 1 0.0122711 0.257641 0.565661
771 1 0.779486 0.870318 0.0239155
772 1 0.279039 0.168126 0.691374
773 1 0.541549 0.611083 0.355506
774 1 0.839353 0.574936 0.98685
775 1 0.0344919 0.0178029 0.488239
776 1 0.420642 0.872453 0.424661
777 1 0.724905 0.0318335 0.813209
778 1 0.572473 0.696675 0.875153
779 1 0.300612 0.649502 0.298351
780 1 0.589669 0.794865 0.271414
781 1 0.559148 0.602233 0.0368203
782 1 0.562542 0.242399 0.569105
783 1 0.703602 0.181086 0.481495
784 1 0.0747704 0.780735 0.906046
785 1 0.741733 0.553028 0.4014
786 1 0.773062 0.212782 0.130105
787 1 0.692329 0.0870394 0.374261
788 1 0.50115 0.999798 0.123353
789 1 0.615636 0.297311 0.368125
790 1 0.490611 0.27073 0.350907
791 1 0.144947 0.104274 0.415054
792 1 0.143477 0.984715 0.5401
793 1 0.741647 0.110517 0.225778
794 1 0.541624 0.811168 0.989218
795 1 0.212637 0.744009 0.389492
796 1 0.667904 0.755144 0.772518
797 1 0.987794 0.71326 0.165529
798 1 0.00951547 0.767828 0.662747
799 1 0.383556 0.904292 0.162777
800 1 0.597216 0.335534 0.0893138
801 1 0.636122 0.822611 0.684794
802 1 0.0665591 0.864007 0.440177
803 1 0.194129 0.136659 0.0667084
804 1 0.361038 0.33925 0.110294
805 1 0.574386 0.269029 0.925884
806 1 0.277421 0.405236 0.598969
807 1 0.0491639 0.215252 0.558791
808 1 0.361087 0.389746 0.0145538
809 1 0.451895 0.463089 0.0050906
810 1 0.313335 0.961166 0.156986
811 1 0.110857 0.327512 0.516884
812 1 0.183623 0.0186001 0.565015
813 1 0.337401 0.937775 0.667715
814 1 0.332479 0.533009 0.914806
815 1 0.355663 0.293791 0.538485
816 1 0.114702 0.0438601 0.295232
817 1 0.7074 0.90309 0.256696
818 1 0.38494 0.272834 0.0345168
819 1 0.398651 0.809621 0.533688
820 1 0.0851291 0.711932 0.267436
821 1 0.811623 0.0725127 0.413152
822 1 0.171209 0.149531 0.708526
823 1 0.525353 0.0395382 0.324327
824 1 0.166663 0.35997 0.0258885
825 1 0.85353 0.86594 0.371443
826 1 0.854927 0.706943 0.770465
827 1 0.165216 0.640914 0.227813
828 1 0.602831 0.792447 0.580519
829 1 0.889207 0.171213 0.561067
830 1 0.970675 0.908808 0.928562
831 1 0.565733 0.289086 0.0789289
832 1 0.223759 0.954673 0.237876
833 1 0.548864 0.982843 0.327252
834 1 0.329694 0.323288 0.576973
835 1 0.970262 0.398761 0.811556
836 1 0.819899 0.67107 0.441491
837 1 0.805414 0.835158 0.0706693
838 1 0.832937 0.336675 0.541544
839 1 0.978014 0.792237 0.712579
840 1 0.78864 0.98762 0.352496
841 1 0.338787 0.0175711 0.929662
842 1 0.312054 0.0869398 0.807668
843 1 0.203558 0.0392314 0.310405
844 1 0.142789 0.71951 0.966599
845 1 0.334818 0.200051 0.268832
846 1 0.216905 0.757264 0.72618
847 1 0.574722 0.823039 0.788399
848 1 0.937316 0.518785 0.321692
849 1 0.24288 0.0138 0.626211
850 1 0.221858 0.219435 0.457055
851 1 0.578251 0.0997666 0.899707
852 1 0.700898 0.836066 0.158935
853 1 0.932328 0.77951 0.00158638
854 1 0.797363 0.183028 0.182329
855 1 0.0482578 0.0440877 0.104897
856 1 0.141494 0.245139 0.117688
857 1 0.27398 0.309934 0.43212
858 1 0.0904433 0.265074 0.00164626
859 1 0.341227 0.0436821 0.551172
860 1 0.582732 0.454579 0.520379
861 1 0.934256 0.0927622 0.275601
862 1 0.560469 0.502974 0.461948
863 1 0.733868 0.676651 0.443872
864 1 0.398703 0.270081 0.661643
865 1 0.613563 0.336054 0.19824
866 1 0.143975 0.933819 0.577449
867 1 0.738691 0.243971 0.208014
868 1 0.768808 0.904797 0.499466
869 1 0.0766542 0.874325 0.218286
870 1 0.23076 0.333613 0.191886
871 1 0.664395 0.721548 0.193165
872 1 0.85309 0.862302 0.894361
873 1 0.374519 0.201949 0.190692
874 1 0.728168 0.34374 0.66696
875 1 0.495158 0.596452 0.0758023
876 1 0.418645 0.0726782 0.0140387
877 1 0.851437 0.875839 0.0862689
878 1 0.976173 0.887738 0.440008
879 1 0.0579874 0.225658 0.150175
880 1 0.826248 0.966429 0.45157
881 1 0.683004 0.618301 0.539675
882 1 0.883394 0.465652 0.0300094
883 1 0.572479 0.525972 0.861143
884 1 0.855396 0.576669 0.123778
885 1 0.622731 0.625473 0.52246
886 1 0.996571 0.0451197 0.919182
887 1 0.702752 0.268305 0.697458
888 1 0.474762 0.80076 0.138422
889 1 0.84096 0.254803 0.466264
890 1 0.930595 0.684235 0.96268
891 1 0.556493 0.128302 0.244124
892 1 0.768948 0.135309 0.127235
893 1 0.0141444 0.879327 0.757668
894 1 0.5537 0.31235 0.881484
895 1 0.756386 0.518029 0.557648
896 1 0.828394 0.124718 0.519695
897 1 0.830034 0.981071 0.86454
898 1 0.790615 0.0170619 0.427341
899 1 0.69731 0.731782 0.986874
900 1 0.305757 0.611681 0.416034
901 1 0.419938 0.328052 0.93095
902 1 0.56044 0.383565 0.665804
903 1 0.284903 0.059 0.305862