ITEM: TIMESTEP
25500
ITEM: NUMBER OF ATOMS
4000
ITEM: BOX BOUNDS pp pp pp
0.0000000000000000e+00 1.6795961913825074e+01
0.0000000000000000e+00 1.6795961913825074e+01
0.0000000000000000e+00 1.6795961913825074e+01
ITEM: ATOMS id type xs ys zs
1 1 0.970813 0.994279 0.0171536
2 1 0.0169128 0.0379292 0.0030407
3 1 0.0286815 0.99463 0.0647859
4 1 0.985993 0.0463816 0.0601206
5 1 0.0765135 0.990629 0.0255338
6 1 0.141332 0.00938306 0.0037286
7 1 0.132821 0.989229 0.0610992
8 1 0.0871034 0.0283593 0.0791137
9 1 0.254318 0.989551 0.950909
10 1 0.275321 0.0551213 0.980758
11 1 0.254597 0.998553 0.0736545
12 1 0.209917 0.00741454 0.992398
13 1 0.291294 0.992472 1.00132
14 1 0.3313 0.0398083 0.0204345
15 1 0.376495 0.038212 0.0743129
16 1 0.274184 0.0464672 0.0435006
17 1 0.384392 0.996573 0.0332884
18 1 0.450841 0.0886806 0.00479322
19 1 0.440393 0.0378831 0.0462869
20 1 0.37603 0.085434 0.0383605
21 1 0.500552 0.985423 0.0637669
22 1 0.470569 0.0161159 0.995697
23 1 0.495718 0.923776 0.0871027
24 1 0.552822 0.0219168 0.0307597
25 1 0.508806 0.964454 0.00571139
26 1 0.672106 0.071298 0.0123746
27 1 0.600345 0.979379 0.0457871
28 1 0.611957 0.039302 0.00276385
29 1 0.781624 0.00790787 0.0366338
30 1 0.737359 0.0496755 0.0375394
31 1 0.731774 0.0111375 0.0879481
32 1 0.725778 0.0921319 0.0784358
33 1 0.831212 0.970628 0.950278
34 1 0.859071 0.0814578 0.0185414
35 1 0.840974 0.00659238 0.0458816
36 1 0.804813 0.0670831 0.0415534
37 1 0.895759 0.994654 0.983314
38 1 0.94578 0.0582673 0.00416737
39 1 0.915045 0.973657 0.0464383
40 1 0.897868 0.0367561 0.0367028
41 1 0.988151 0.098581 0.0104212
42 1 0.0490103 0.14417 0.0156303
43 1 0.0390048 0.09482 0.0614353
44 1 0.991386 0.152813 0.0602117
45 1 0.0791876 0.0634923 0.0175907
46 1 0.147285 0.15461 0.996758
47 1 0.137752 0.0928214 0.0145905
48 1 0.107693 0.152716 0.0461671
49 1 0.173273 0.108092 0.961289
50 1 0.243461 0.172527 0.981191
51 1 0.249348 0.105589 0.0303796
52 1 0.180529 0.144293 0.0543002
53 1 0.295918 0.13873 0.985839
54 1 0.35259 0.148626 0.0319504
55 1 0.315414 0.0964815 0.0263502
56 1 0.291843 0.172439 0.0466509
57 1 0.397772 0.125208 0.981365
58 1 0.497426 0.190508 0.979194
59 1 0.438132 0.0902714 0.0768734
60 1 0.396177 0.161502 0.0687694
61 1 0.44855 0.146799 0.0280733
62 1 0.519798 0.126477 1.00056
63 1 0.567099 0.983397 0.979895
64 1 0.534207 0.161162 0.0934187
65 1 0.572131 0.062408 0.951333
66 1 0.642903 0.135774 0.0174959
67 1 0.558375 0.0846883 0.0919019
68 1 0.624475 0.129424 0.128953
69 1 0.653613 0.0881785 0.0767054
70 1 0.727674 0.189733 0.00918465
71 1 0.747911 0.113696 0.0127233
72 1 0.598391 0.19147 0.0171127
73 1 0.776351 0.0823408 0.967708
74 1 0.839127 0.168369 0.00877106
75 1 0.826731 0.12725 0.0618174
76 1 0.78549 0.166664 0.0409148
77 1 0.921628 0.119914 0.00853837
78 1 0.96585 0.163379 0.987037
79 1 0.951297 0.0983559 0.0584474
80 1 0.88525 0.162219 0.054636
81 1 0.0224166 0.206318 0.00551585
82 1 0.0583542 0.258674 0.00749718
83 1 0.0650112 0.205068 0.0551924
84 1 0.00893207 0.247399 0.0590415
85 1 0.0878316 0.193272 0.997797
86 1 0.15077 0.264445 0.994595
87 1 0.140094 0.210078 0.039969
88 1 0.10457 0.258591 0.0580339
89 1 0.196759 0.213334 0.990989
90 1 0.240662 0.261405 0.990468
91 1 0.229765 0.204826 0.0644432
92 1 0.192309 0.255482 0.0561517
93 1 0.316555 0.201827 0.996237
94 1 0.334335 0.261639 0.0242733
95 1 0.341724 0.205626 0.0636355
96 1 0.270373 0.248709 0.0418974
97 1 0.3782 0.206535 0.0067453
98 1 0.433045 0.267753 0.010299
99 1 0.435249 0.206944 0.0443827
100 1 0.388808 0.271573 0.0544797
101 1 0.499388 0.184428 0.0435979
102 1 0.548542 0.240956 0.948978
103 1 0.538868 0.226718 0.02006
104 1 0.477916 0.263683 0.0519968
105 1 0.58196 0.142008 0.0497005
106 1 0.649038 0.267927 0.994511
107 1 0.681177 0.246586 0.0409141
108 1 0.610517 0.249813 0.0440109
109 1 0.664027 0.194729 0.992499
110 1 0.737137 0.259508 0.000280325
111 1 0.750195 0.218918 0.0615423
112 1 0.76597 0.259901 0.107394
113 1 0.788181 0.215843 0.998777
114 1 0.846211 0.249968 0.998118
115 1 0.848773 0.211399 0.0563577
116 1 0.798624 0.252424 0.05171
117 1 0.903652 0.197318 0.997502
118 1 0.956916 0.235896 0.991525
119 1 0.952298 0.197492 0.055676
120 1 0.910492 0.240304 0.0468841
121 1 0.00298962 0.289308 0.97877
122 1 0.0297875 0.349846 0.00359731
123 1 0.0443103 0.303365 0.0507612
124 1 0.985792 0.356711 0.0513519
125 1 0.0957475 0.31917 0.0094507
126 1 0.150635 0.350189 0.00570633
127 1 0.145369 0.301835 0.0459784
128 1 0.0912908 0.349558 0.0607798
129 1 0.201775 0.307621 0.0107524
130 1 0.243235 0.349185 0.974203
131 1 0.248781 0.304144 0.0500412
132 1 0.200065 0.350017 0.0586914
133 1 0.286851 0.305472 0.992646
134 1 0.333935 0.350591 0.00996208
135 1 0.329453 0.310669 0.0697374
136 1 0.289426 0.355642 0.0538985
137 1 0.386337 0.313672 0.00334715
138 1 0.44024 0.368504 0.00408807
139 1 0.439369 0.320589 0.0567748
140 1 0.39666 0.368423 0.0582185
141 1 0.48623 0.325185 0.99594
142 1 0.546697 0.347155 0.984475
143 1 0.529297 0.300342 0.0309387
144 1 0.495179 0.353302 0.0588311
145 1 0.590202 0.295989 0.991474
146 1 0.633021 0.343832 0.999397
147 1 0.653611 0.305387 0.04791
148 1 0.584558 0.332337 0.0506931
149 1 0.694002 0.312259 0.994319
150 1 0.751132 0.347205 0.00746422
151 1 0.749516 0.291954 0.0565563
152 1 0.710958 0.344304 0.0491917
153 1 0.797483 0.293184 0.99296
154 1 0.833933 0.351342 0.997582
155 1 0.853812 0.282847 0.0562585
156 1 0.799937 0.357429 0.0512029
157 1 0.897265 0.293114 0.997791
158 1 0.941278 0.34474 0.996918
159 1 0.954652 0.289481 0.0245515
160 1 0.899429 0.337385 0.0461158
161 1 0.994657 0.396366 0.999198
162 1 0.0411076 0.436655 0.99962
163 1 0.0389109 0.396779 0.0548195
164 1 0.991569 0.43679 0.0513432
165 1 0.0904997 0.384588 0.00666195
166 1 0.135389 0.451976 0.996895
167 1 0.138687 0.401104 0.0530991
168 1 0.0911455 0.441116 0.0448959
169 1 0.206318 0.385925 0.99848
170 1 0.245169 0.446414 0.998282
171 1 0.240445 0.398987 0.0627895
172 1 0.193242 0.431801 0.0387326
173 1 0.291189 0.398233 1.0021
174 1 0.357325 0.440556 0.996286
175 1 0.349903 0.402909 0.050117
176 1 0.296707 0.442879 0.0477108
177 1 0.385985 0.386812 0.99573
178 1 0.442655 0.434333 0.991128
179 1 0.446167 0.401325 0.0538145
180 1 0.407416 0.454275 0.0539335
181 1 0.500108 0.394139 0.986842
182 1 0.540391 0.443246 0.997304
183 1 0.536688 0.421523 0.0642597
184 1 0.486886 0.448271 0.0423901
185 1 0.57925 0.390068 0.0163898
186 1 0.651879 0.443079 0.99661
187 1 0.647324 0.374271 0.0525468
188 1 0.601928 0.438281 0.0572107
189 1 0.695563 0.38047 0.997902
190 1 0.729008 0.442977 0.00713642
191 1 0.745162 0.403859 0.0581628
192 1 0.687443 0.432878 0.0585887
193 1 0.792286 0.405168 0.997534
194 1 0.842356 0.44781 0.998968
195 1 0.851866 0.397477 0.0556017
196 1 0.800988 0.445686 0.0508206
197 1 0.893676 0.393477 0.00401374
198 1 0.943846 0.435546 0.000739214
199 1 0.940009 0.39743 0.0517914
200 1 0.894213 0.448393 0.0489175
201 1 0.99607 0.479055 0.000402874
202 1 0.0379724 0.542917 0.00827901
203 1 0.0272754 0.490147 0.0506292
204 1 0.994975 0.543619 0.0528583
205 1 0.0838477 0.490668 0.0159663
206 1 0.126979 0.547739 0.00447991
207 1 0.148936 0.496108 0.0398482
208 1 0.0859256 0.551048 0.05689
209 1 0.201398 0.49241 0.000798303
210 1 0.244924 0.540012 0.00461983
211 1 0.24353 0.488691 0.0506427
212 1 0.197178 0.527767 0.0465287
213 1 0.292015 0.49936 0.00211737
214 1 0.34112 0.536841 0.997598
215 1 0.343746 0.485011 0.035543
216 1 0.291959 0.536336 0.0494054
217 1 0.417543 0.485273 0.000172334
218 1 0.436904 0.542179 0.992765
219 1 0.457545 0.501137 0.0633211
220 1 0.392213 0.534589 0.0402988
221 1 0.480908 0.491196 0.00182596
222 1 0.536583 0.52941 0.999395
223 1 0.555371 0.481705 0.0512861
224 1 0.511017 0.531946 0.0538977
225 1 0.595552 0.490291 0.993026
226 1 0.630405 0.538446 1.00031
227 1 0.651454 0.488603 0.0468864
228 1 0.594603 0.537457 0.047936
229 1 0.685801 0.502327 0.997203
230 1 0.732462 0.545438 0.00178648
231 1 0.719267 0.4886 0.0564355
232 1 0.68139 0.542176 0.0438689
233 1 0.792367 0.485634 0.991143
234 1 0.835547 0.541513 0.993283
235 1 0.850653 0.499025 0.0422775
236 1 0.792385 0.530861 0.0333787
237 1 0.889338 0.504151 0.991604
238 1 0.944169 0.545061 -0.00102912
239 1 0.937912 0.50017 0.0390422
240 1 0.882407 0.554627 0.0556699
241 1 0.992353 0.587138 0.00562265
242 1 0.0362052 0.647111 0.00125708
243 1 0.0399474 0.587469 0.0564189
244 1 0.992253 0.637993 0.0577972
245 1 0.0823481 0.594116 0.00325692
246 1 0.166106 0.619588 0.00376697
247 1 0.140625 0.588279 0.0518978
248 1 0.090741 0.633586 0.055724
249 1 0.192031 0.63567 0.0570598
250 1 0.241127 0.638316 0.00547242
251 1 0.221156 0.585667 0.0361025
252 1 0.25403 0.675256 0.0576939
253 1 0.286193 0.594401 0.0160149
254 1 0.344119 0.648536 0.000860782
255 1 0.343505 0.586081 0.0423706
256 1 0.301377 0.630864 0.0702734
257 1 0.387202 0.58959 4.45487e-05
258 1 0.437826 0.634068 0.999115
259 1 0.444962 0.587793 0.0396933
260 1 0.395164 0.638251 0.0432773
261 1 0.495156 0.581974 0.00468176
262 1 0.5484 0.641992 0.00853953
263 1 0.540835 0.584343 0.0507425
264 1 0.493996 0.639377 0.0429329
265 1 0.587686 0.590489 0.0124977
266 1 0.636874 0.632137 0.996041
267 1 0.642902 0.584391 0.0528343
268 1 0.595685 0.65317 0.049596
269 1 0.68323 0.588022 -0.00213364
270 1 0.733418 0.623037 0.0054059
271 1 0.738239 0.577797 0.0562905
272 1 0.702573 0.635883 0.0553764
273 1 0.79522 0.596927 0.00865888
274 1 0.847442 0.636796 -0.000907562
275 1 0.828157 0.579254 0.0571699
276 1 0.788601 0.627134 0.0705774
277 1 0.882877 0.58487 0.00365396
278 1 0.936592 0.630601 0.00409119
279 1 0.944044 0.588394 0.0537452
280 1 0.887643 0.620313 0.0598773
281 1 0.980613 0.674989 0.99949
282 1 0.0309995 0.726085 0.00299124
283 1 0.0371444 0.679763 0.061426
284 1 0.989838 0.725714 0.0519555
285 1 0.0894362 0.690056 0.0271572
286 1 0.138124 0.738697 0.996241
287 1 0.145357 0.683503 0.0587143
288 1 0.0976121 0.753573 0.0436676
289 1 0.199869 0.70675 0.0180884
290 1 0.244199 0.743476 0.0318123
291 1 0.237068 0.754961 0.0951297
292 1 0.180126 0.760636 0.0533789
293 1 0.291356 0.686385 0.000629858
294 1 0.360113 0.756356 0.000760238
295 1 0.343952 0.681168 0.0569485
296 1 0.299022 0.7269 0.0572557
297 1 0.390822 0.696127 0.00755456
298 1 0.441968 0.74089 0.987648
299 1 0.443172 0.687585 0.0385706
300 1 0.385289 0.728517 0.0635319
301 1 0.513846 0.702246 0.993006
302 1 0.56637 0.752034 0.000783617
303 1 0.532137 0.690631 0.0689528
304 1 0.464195 0.730032 0.0857365
305 1 0.589118 0.691139 0.995367
306 1 0.631468 0.748898 0.00646617
307 1 0.652795 0.687866 0.0484565
308 1 0.595901 0.729006 0.0523575
309 1 0.69456 0.670913 1.00137
310 1 0.748529 0.718004 0.996961
311 1 0.748162 0.677036 0.0387598
312 1 0.706467 0.727972 0.0524183
313 1 0.791724 0.671225 0.994519
314 1 0.845285 0.722151 0.997593
315 1 0.845426 0.675671 0.0492571
316 1 0.800618 0.715657 0.037639
317 1 0.890729 0.681471 0.995262
318 1 0.946022 0.733534 0.998972
319 1 0.940822 0.67638 0.0495655
320 1 0.891101 0.724451 0.0425262
321 1 0.991518 0.778515 0.0016861
322 1 0.0547359 0.832663 0.0111098
323 1 0.0337885 0.777316 0.0480493
324 1 0.988299 0.822246 0.042629
325 1 0.0773317 0.776729 0.985912
326 1 0.120221 0.822812 0.971608
327 1 0.130889 0.803216 0.0317151
328 1 0.109492 0.867804 0.0396577
329 1 0.189728 0.77794 0.996092
330 1 0.170921 0.843148 0.00992523
331 1 0.232701 0.802622 0.0409892
332 1 0.17536 0.89033 0.06568
333 1 0.295414 0.779259 0.0146665
334 1 0.350396 0.815838 0.0101367
335 1 0.351648 0.782922 0.0759049
336 1 0.230179 0.869553 0.0236179
337 1 0.413759 0.801382 0.0152965
338 1 0.452858 0.853145 0.967398
339 1 0.415036 0.802862 0.0865437
340 1 0.365379 0.846991 0.0813543
341 1 0.495637 0.761868 0.0181217
342 1 0.548275 0.819337 0.0270953
343 1 0.552587 0.815172 0.0864412
344 1 0.484927 0.823813 0.0400523
345 1 0.611077 0.803947 0.998148
346 1 0.654593 0.84448 0.0150844
347 1 0.659922 0.778632 0.0624015
348 1 0.61081 0.836215 0.0691034
349 1 0.698254 0.772042 0.99966
350 1 0.719311 0.826799 0.00669526
351 1 0.74952 0.76943 0.0430588
352 1 0.705235 0.822272 0.0648919
353 1 0.796797 0.772772 0.992298
354 1 0.839222 0.819856 0.00180874
355 1 0.845809 0.775197 0.0392987
356 1 0.78173 0.824324 0.0179937
357 1 0.899537 0.776074 0.986789
358 1 0.944538 0.826171 0.993932
359 1 0.93656 0.775633 0.0509238
360 1 0.887515 0.818961 0.0467626
361 1 0.99481 0.881455 -0.000443065
362 1 0.0267218 0.943639 0.0278165
363 1 0.0348191 0.880042 0.0514727
364 1 0.965971 0.926031 0.0453847
365 1 0.0955159 0.88075 0.974353
366 1 0.111712 0.95302 0.986132
367 1 0.124151 0.929002 0.0511586
368 1 0.0793342 0.968484 0.0845358
369 1 0.172691 0.903023 3.98247e-05
370 1 0.232887 0.943247 0.996804
371 1 0.234066 0.934134 0.0643782
372 1 0.182985 0.954249 0.0357834
373 1 0.28639 0.908027 0.972254
374 1 0.338414 0.945564 0.00824362
375 1 0.297998 0.869258 0.0431533
376 1 0.318828 0.00243504 0.0712709
377 1 0.367447 0.880616 0.0264989
378 1 0.425641 0.959877 0.994272
379 1 0.428591 0.859486 0.0323683
380 1 0.362169 0.940788 0.0737292
381 1 0.512302 0.88885 0.993237
382 1 0.467228 0.918319 0.0295838
383 1 0.528914 0.877666 0.0517976
384 1 0.428546 0.914075 0.152984
385 1 0.589632 0.869431 0.0211915
386 1 0.698705 0.00900333 0.998092
387 1 0.615694 0.912173 0.0567871
388 1 0.559015 0.926211 0.0341343
389 1 0.67131 0.910298 0.0160841
390 1 0.734841 0.951111 0.992013
391 1 0.766472 0.905543 0.0234659
392 1 0.712423 0.95482 0.0698867
393 1 0.792164 0.914699 0.964636
394 1 0.880241 0.929225 0.963484
395 1 0.830021 0.886604 0.00219775
396 1 0.821682 0.953322 0.0113632
397 1 0.892873 0.865547 0.00336045
398 1 0.936367 0.942389 0.984285
399 1 0.940908 0.872712 0.0405827
400 1 0.889174 0.916974 0.0356659
401 1 0.973802 0.977588 0.094985
402 1 0.0376302 0.0503605 0.12411
403 1 0.0346373 0.989027 0.134443
404 1 0.982543 0.024508 0.135675
405 1 0.12518 0.97919 0.123624
406 1 0.148179 0.0364787 0.100597
407 1 0.166774 0.00930701 0.171626
408 1 0.0930628 0.0278801 0.14563
409 1 0.201011 0.0300768 0.0511429
410 1 0.234092 0.0693133 0.0866134
411 1 0.23166 -0.000105773 0.163835
412 1 0.201593 0.0566305 0.138628
413 1 0.294393 0.0146963 0.143004
414 1 0.328386 0.0737398 0.0817365
415 1 0.342897 0.0625391 0.168476
416 1 0.295002 0.0860612 0.128729
417 1 0.385184 0.974576 0.121855
418 1 0.453107 0.019381 0.106706
419 1 0.462086 0.968688 0.194054
420 1 0.396269 0.0519417 0.134681
421 1 0.4602 0.956656 0.116179
422 1 0.614794 0.997726 0.110322
423 1 0.612031 0.951837 0.162754
424 1 0.530273 0.020645 0.158667
425 1 0.525969 0.966374 0.13048
426 1 0.600538 0.0444442 0.0679705
427 1 0.680376 0.961772 0.131955
428 1 0.552006 0.0843486 0.174677
429 1 0.748023 0.023235 0.146988
430 1 0.771151 0.0585306 0.100399
431 1 0.742692 0.967922 0.124479
432 1 0.678471 0.0327792 0.125608
433 1 0.798966 0.994445 0.104984
434 1 0.846677 0.0544075 0.0890829
435 1 0.836312 0.983904 0.157701
436 1 0.807204 0.0432977 0.15298
437 1 0.878581 -0.00230923 0.094796
438 1 0.929929 0.0475319 0.093157
439 1 0.925613 0.98677 0.147081
440 1 0.876854 0.0355368 0.154295
441 1 0.98646 0.0870411 0.112579
442 1 0.0567592 0.149606 0.0898472
443 1 0.0602267 0.103543 0.150568
444 1 0.00577422 0.144122 0.137326
445 1 0.107557 0.0867944 0.0697486
446 1 0.117252 0.139323 0.107037
447 1 0.125256 0.0834056 0.143877
448 1 0.100181 0.141351 0.186462
449 1 0.166714 0.0971601 0.0931013
450 1 0.233213 0.173307 0.112536
451 1 0.228997 0.114042 0.141053
452 1 0.168155 0.131289 0.151345
453 1 0.279224 0.125954 0.0823482
454 1 0.340566 0.148458 0.0909276
455 1 0.340973 0.125763 0.154015
456 1 0.287946 0.171351 0.146946
457 1 0.38068 0.102411 0.0999805
458 1 0.453232 0.155954 0.1006
459 1 0.456677 0.109005 0.144939
460 1 0.402722 0.153312 0.14067
461 1 0.495673 0.114325 0.0601279
462 1 0.561366 0.146196 0.146501
463 1 0.50804 0.075351 0.12731
464 1 0.505523 0.1602 0.159029
465 1 0.556714 0.00308851 0.0957207
466 1 0.638463 0.197641 0.127632
467 1 0.611455 0.0612584 0.130277
468 1 0.610462 0.133552 0.191616
469 1 0.667537 0.0191724 0.0617886
470 1 0.70006 0.144621 0.0525837
471 1 0.747503 0.0935342 0.151545
472 1 0.683298 0.0962039 0.130383
473 1 0.766425 0.132 0.100097
474 1 0.854255 0.163347 0.103615
475 1 0.83771 0.0994992 0.133191
476 1 0.805052 0.157804 0.145111
477 1 0.887813 0.103265 0.0807219
478 1 0.936881 0.14743 0.100099
479 1 0.931872 0.077496 0.147329
480 1 0.900636 0.153916 0.152106
481 1 0.00181768 0.202501 0.110547
482 1 0.054958 0.248329 0.107122
483 1 0.0608997 0.187294 0.15751
484 1 0.00506124 0.255867 0.144786
485 1 0.10215 0.199787 0.106909
486 1 0.138292 0.24501 0.120719
487 1 0.167706 0.193997 0.167497
488 1 0.089342 0.248755 0.168259
489 1 0.170977 0.172851 0.105949
490 1 0.224463 0.251764 0.108522
491 1 0.237805 0.210763 0.167334
492 1 0.186288 0.263906 0.157467
493 1 0.289009 0.213742 0.102083
494 1 0.344217 0.253643 0.107892
495 1 0.355083 0.198935 0.146987
496 1 0.312142 0.25029 0.160055
497 1 0.393577 0.210458 0.0969226
498 1 0.420398 0.262011 0.119267
499 1 0.448632 0.195256 0.146998
500 1 0.380314 0.27246 0.166746
501 1 0.473513 0.219213 0.0982782
502 1 0.54026 0.25246 0.0808361
503 1 0.544304 0.214755 0.138321
504 1 0.49399 0.258382 0.144138
505 1 0.588685 0.211323 0.0836889
506 1 0.643297 0.255866 0.0969609
507 1 0.667072 0.160281 0.182449
508 1 0.590482 0.256125 0.152168
509 1 0.714011 0.163153 0.115255
510 1 0.647554 0.192288 0.0599928
511 1 0.751659 0.208098 0.151201
512 1 0.698185 0.23016 0.112306
513 1 0.795969 0.201965 0.100037
514 1 0.838039 0.249014 0.104821
515 1 0.844102 0.212167 0.153359
516 1 0.79582 0.25709 0.161073
517 1 0.89324 0.212747 0.100604
518 1 0.94913 0.254268 0.0985684
519 1 0.950624 0.204586 0.137545
520 1 0.907403 0.251827 0.160047
521 1 0.996632 0.303365 0.095087
522 1 0.0434812 0.350129 0.104584
523 1 0.0599785 0.302293 0.155851
524 1 0.998427 0.34451 0.150319
525 1 0.103564 0.303115 0.104604
526 1 0.148143 0.356638 0.0888575
527 1 0.128194 0.304545 0.166198
528 1 0.10689 0.358724 0.138163
529 1 0.170443 0.301591 0.111768
530 1 0.233037 0.329407 0.110367
531 1 0.247202 0.286467 0.157685
532 1 0.186841 0.357493 0.150995
533 1 0.285333 0.287072 0.106895
534 1 0.341011 0.36524 0.0958423
535 1 0.341355 0.317585 0.138711
536 1 0.28936 0.347042 0.132446
537 1 0.391651 0.321431 0.104955
538 1 0.442775 0.36363 0.107426
539 1 0.427087 0.316478 0.158989
540 1 0.387054 0.363725 0.154067
541 1 0.475499 0.298723 0.101366
542 1 0.535262 0.315273 0.0946251
543 1 0.540144 0.296496 0.157884
544 1 0.496911 0.353698 0.170143
545 1 0.59569 0.29557 0.0989199
546 1 0.662184 0.341316 0.105587
547 1 0.659236 0.281529 0.159196
548 1 0.603227 0.334932 0.146385
549 1 0.701042 0.296057 0.109429
550 1 0.757906 0.350178 0.0991893
551 1 0.766394 0.310199 0.140792
552 1 0.707928 0.33625 0.153734
553 1 0.807168 0.309208 0.0869016
554 1 0.861352 0.347575 0.102693
555 1 0.854645 0.290936 0.161383
556 1 0.819117 0.352548 0.166982
557 1 0.891981 0.289261 0.103093
558 1 0.940735 0.35092 0.0972229
559 1 0.955584 0.299303 0.142981
560 1 0.900264 0.352325 0.153179
561 1 0.993068 0.386407 0.102742
562 1 0.031903 0.454504 0.103023
563 1 0.0416929 0.396682 0.151669
564 1 0.9911 0.440566 0.147768
565 1 0.0847892 0.402441 0.101203
566 1 0.129562 0.446571 0.105611
567 1 0.144165 0.407226 0.149808
568 1 0.0824233 0.443825 0.146692
569 1 0.18513 0.406738 0.0992726
570 1 0.239247 0.451321 0.0998943
571 1 0.245346 0.403697 0.144922
572 1 0.196931 0.450723 0.154129
573 1 0.290776 0.41039 0.0986042
574 1 0.35534 0.457381 0.0971288
575 1 0.346456 0.419246 0.146677
576 1 0.287143 0.455372 0.147135
577 1 0.397356 0.409744 0.103411
578 1 0.454412 0.450702 0.110521
579 1 0.449505 0.398339 0.156098
580 1 0.399314 0.450532 0.152462
581 1 0.504177 0.396728 0.111388
582 1 0.55952 0.432457 0.118794
583 1 0.551525 0.38018 0.156441
584 1 0.504212 0.440043 0.151681
585 1 0.610879 0.392956 0.114097
586 1 0.654667 0.437509 0.113787
587 1 0.667098 0.38969 0.155062
588 1 0.605433 0.442184 0.155476
589 1 0.708589 0.389352 0.108163
590 1 0.755084 0.443784 0.108842
591 1 0.756204 0.383204 0.150954
592 1 0.70466 0.457128 0.153046
593 1 0.805651 0.397066 0.10135
594 1 0.84623 0.45858 0.0990157
595 1 0.853254 0.399405 0.142221
596 1 0.79748 0.434724 0.154301
597 1 0.90086 0.40749 0.103077
598 1 0.94041 0.455016 0.0891043
599 1 0.94354 0.400135 0.150391
600 1 0.895902 0.454537 0.1454
601 1 0.983145 0.506043 0.106327
602 1 0.0384666 0.535925 0.100368
603 1 0.0327473 0.508444 0.153211
604 1 0.980287 0.544762 0.159837
605 1 0.0984703 0.500533 0.0973067
606 1 0.141771 0.541006 0.0895001
607 1 0.156502 0.507336 0.140759
608 1 0.094468 0.545759 0.157822
609 1 0.186118 0.474783 0.0902969
610 1 0.211154 0.525862 0.107195
611 1 0.245002 0.497329 0.146916
612 1 0.200061 0.548481 0.164395
613 1 0.291047 0.48938 0.0988238
614 1 0.342925 0.536239 0.0884537
615 1 0.351733 0.494759 0.156087
616 1 0.287742 0.539504 0.154048
617 1 0.40251 0.498442 0.0928641
618 1 0.451547 0.550054 0.100688
619 1 0.459054 0.497325 0.153322
620 1 0.398989 0.544312 0.144437
621 1 0.512325 0.478458 0.0945966
622 1 0.557238 0.528211 0.100951
623 1 0.557268 0.487417 0.160744
624 1 0.510632 0.53427 0.151729
625 1 0.609954 0.481237 0.104483
626 1 0.639964 0.550454 0.105336
627 1 0.635854 0.495569 0.166872
628 1 0.596852 0.541119 0.157853
629 1 0.680087 0.496136 0.102969
630 1 0.716578 0.543364 0.103713
631 1 0.746011 0.499242 0.159403
632 1 0.682678 0.534689 0.154464
633 1 0.770854 0.505609 0.0952809
634 1 0.842009 0.531922 0.10437
635 1 0.847957 0.485647 0.170576
636 1 0.80269 0.538037 0.161745
637 1 0.89771 0.498773 0.0967387
638 1 0.939352 0.546781 0.0995562
639 1 0.944323 0.488477 0.163325
640 1 0.892845 0.532695 0.157491
641 1 0.986084 0.596581 0.108385
642 1 0.0407476 0.633816 0.105796
643 1 0.0330537 0.588724 0.149168
644 1 0.989657 0.632482 0.159037
645 1 0.0981883 0.588119 0.109593
646 1 0.143545 0.630983 0.101216
647 1 0.143185 0.586563 0.14856
648 1 0.0912861 0.642654 0.147282
649 1 0.197469 0.58555 0.109066
650 1 0.260449 0.637637 0.112578
651 1 0.243508 0.599391 0.153579
652 1 0.196942 0.660339 0.131165
653 1 0.283646 0.574349 0.1001
654 1 0.362108 0.627578 0.0964841
655 1 0.340545 0.574802 0.13436
656 1 0.311025 0.628528 0.14727
657 1 0.397431 0.577306 0.0836104
658 1 0.447458 0.615316 0.0911171
659 1 0.464842 0.586405 0.17187
660 1 0.385943 0.614816 0.153593
661 1 0.508828 0.578189 0.106638
662 1 0.535639 0.630602 0.0933636
663 1 0.552127 0.584036 0.157164
664 1 0.511049 0.637261 0.152852
665 1 0.591665 0.601089 0.0862292
666 1 0.637887 0.640988 0.119665
667 1 0.636113 0.585031 0.163557
668 1 0.580412 0.638112 0.151391
669 1 0.683867 0.604444 0.108231
670 1 0.739701 0.630939 0.105385
671 1 0.726925 0.584467 0.152725
672 1 0.692892 0.641492 0.155033
673 1 0.787431 0.569572 0.103187
674 1 0.834837 0.635844 0.107194
675 1 0.845367 0.590316 0.168799
676 1 0.790283 0.609783 0.147956
677 1 0.873028 0.587317 0.111678
678 1 0.929733 0.627664 0.107014
679 1 0.939693 0.587734 0.154898
680 1 0.893008 0.631381 0.154611
681 1 0.996119 0.681826 0.105877
682 1 0.0397302 0.739344 0.101415
683 1 0.0366259 0.678972 0.15384
684 1 0.988526 0.740809 0.1524
685 1 0.0850763 0.686429 0.104986
686 1 0.137286 0.734554 0.0916122
687 1 0.140069 0.694436 0.133182
688 1 0.0958774 0.738056 0.149416
689 1 0.196206 0.704361 0.0832113
690 1 0.243307 0.76428 0.173272
691 1 0.191418 0.739879 0.138097
692 1 0.187456 0.821942 0.0795415
693 1 0.301027 0.687984 0.104496
694 1 0.364796 0.728491 0.131046
695 1 0.352904 0.676431 0.166441
696 1 0.303335 0.719243 0.16595
697 1 0.402654 0.668752 0.110193
698 1 0.435092 0.728097 0.140618
699 1 0.442518 0.664423 0.155542
700 1 0.39034 0.751566 0.186787
701 1 0.482774 0.671329 0.101969
702 1 0.528621 0.755575 0.0678531
703 1 0.553318 0.695853 0.173967
704 1 0.49335 0.696049 0.159444
705 1 0.59057 0.681005 0.107356
706 1 0.651635 0.73017 0.110033
707 1 0.650515 0.690104 0.164609
708 1 0.604661 0.727311 0.143496
709 1 0.697134 0.681761 0.100559
710 1 0.738502 0.729371 0.114917
711 1 0.734922 0.688791 0.156664
712 1 0.68775 0.733237 0.155781
713 1 0.788582 0.685563 0.0934833
714 1 0.843013 0.721321 0.0911602
715 1 0.839729 0.674041 0.152302
716 1 0.786203 0.727309 0.153382
717 1 0.895631 0.679068 0.0987802
718 1 0.937612 0.724053 0.0941148
719 1 0.943904 0.676704 0.15034
720 1 0.891469 0.716864 0.150606
721 1 0.983581 0.778985 0.102917
722 1 0.0353308 0.828942 0.0850123
723 1 0.0417291 0.778051 0.149447
724 1 0.98851 0.836971 0.144882
725 1 0.0837295 0.785708 0.0966465
726 1 0.127872 0.913646 0.120613
727 1 0.0976432 0.786064 0.194341
728 1 0.0770073 0.831767 0.142985
729 1 0.125149 0.850381 0.0998877
730 1 0.245367 0.869978 0.0908612
731 1 0.185852 0.785469 0.190108
732 1 0.221818 0.806897 0.128186
733 1 0.30499 0.751104 0.111545
734 1 0.295071 0.810165 0.0780852
735 1 0.328003 0.785085 0.183596
736 1 0.344415 0.843199 0.149336
737 1 0.374664 0.79005 0.135137
738 1 0.463843 0.848738 0.103866
739 1 0.434079 0.791612 0.154482
740 1 0.336653 0.797017 0.246937
741 1 0.484551 0.785705 0.121303
742 1 0.511305 0.853599 0.165283
743 1 0.497868 0.769212 0.182788
744 1 0.517386 0.887897 0.217455
745 1 0.606256 0.781772 0.109991
746 1 0.667454 0.87847 0.0734107
747 1 0.660306 0.829228 0.116964
748 1 0.544934 0.765479 0.129905
749 1 0.701957 0.781923 0.113734
750 1 0.76434 0.820684 0.081979
751 1 0.770653 0.786743 0.133874
752 1 0.71725 0.839101 0.150243
753 1 0.796645 0.758605 0.0831363
754 1 0.827608 0.81652 0.0958278
755 1 0.849341 0.766187 0.135932
756 1 0.823215 0.829934 0.162672
757 1 0.888569 0.77453 0.0910753
758 1 0.931384 0.821526 0.091732
759 1 0.92605 0.775955 0.137986
760 1 0.883704 0.832664 0.141906
761 1 0.986687 0.874635 0.0943132
762 1 0.0185781 0.930402 0.0880026
763 1 0.0308958 0.881084 0.143188
764 1 0.99304 0.941777 0.14152
765 1 0.0712241 0.878558 0.0997911
766 1 0.204703 0.980819 0.10712
767 1 0.129292 0.947506 0.20257
768 1 0.0736145 0.938912 0.153474
769 1 0.227437 0.92061 0.132597
770 1 0.301142 0.934846 0.0569319
771 1 0.282249 0.812407 0.145132
772 1 0.175116 0.943831 0.155199
773 1 0.303779 0.888836 0.102662
774 1 0.318729 0.952293 0.122605
775 1 0.34354 0.854954 0.213012
776 1 0.282209 0.964733 0.1774
777 1 0.369101 0.901195 0.119338
778 1 0.435978 0.974288 0.0613488
779 1 0.39601 0.824752 0.192839
780 1 0.406941 0.84584 0.131685
781 1 0.430109 0.913282 0.0842636
782 1 0.548929 0.874408 0.117705
783 1 0.567813 0.895307 0.174813
784 1 0.501536 0.914304 0.160605
785 1 0.568247 0.822297 0.149182
786 1 0.654533 0.958003 0.0774708
787 1 0.614571 0.872465 0.131534
788 1 0.578591 0.938344 0.107451
789 1 0.731712 0.886528 0.0707403
790 1 0.771647 0.953496 0.0633518
791 1 0.765411 0.86827 0.122519
792 1 0.689271 0.901165 0.127091
793 1 0.803154 0.875424 0.0767906
794 1 0.856844 0.932746 0.0887499
795 1 0.841456 0.875965 0.128221
796 1 0.795933 0.928263 0.125139
797 1 0.886828 0.87674 0.08276
798 1 0.923074 0.928591 0.094627
799 1 0.9317 0.886186 0.158301
800 1 0.88715 0.921052 0.145278
801 1 0.980871 0.988018 0.189205
802 1 0.0298063 0.0502342 0.187641
803 1 0.0144897 0.992176 0.252865
804 1 0.981443 0.0498345 0.238839
805 1 0.0701274 0.987499 0.191009
806 1 0.115506 0.0134488 0.211934
807 1 0.161145 0.9713 0.272352
808 1 0.0627724 0.0346461 0.249483
809 1 0.188851 0.972226 0.217363
810 1 0.258611 0.0554007 0.179017
811 1 0.247733 0.00480054 0.230902
812 1 0.182945 0.0355715 0.231065
813 1 0.343647 0.997015 0.239571
814 1 0.291547 0.0480136 0.240154
815 1 0.396385 0.0163488 0.265425
816 1 0.335624 0.0177208 0.295269
817 1 0.385432 0.0457306 0.215754
818 1 0.4742 0.0425011 0.173294
819 1 0.461712 0.000413684 0.256505
820 1 0.393036 0.0896449 0.261066
821 1 0.558307 0.955309 0.194521
822 1 0.545691 0.0309323 0.22767
823 1 0.601049 0.997453 0.237245
824 1 0.490033 0.960087 0.302559
825 1 0.590239 0.0274342 0.181208
826 1 0.645752 0.007101 0.174858
827 1 0.656321 0.972823 0.249294
828 1 0.640446 0.0539918 0.252523
829 1 0.705778 0.0364978 0.194042
830 1 0.756053 0.0649417 0.207686
831 1 0.723945 0.975309 0.18631
832 1 0.71168 0.0718054 0.255766
833 1 0.781223 0.998071 0.204703
834 1 0.839956 0.0361789 0.207224
835 1 0.840399 0.983253 0.24347
836 1 0.773084 0.0233126 0.260301
837 1 0.891026 0.981568 0.197112
838 1 0.938395 0.0398328 0.196768
839 1 0.945282 0.978939 0.243554
840 1 0.890202 0.0399359 0.244403
841 1 0.989153 0.0921389 0.184559
842 1 0.0335925 0.149433 0.207924
843 1 0.0279153 0.0919998 0.235067
844 1 0.980732 0.1569 0.250736
845 1 0.0949114 0.0734663 0.198525
846 1 0.15481 0.150473 0.218878
847 1 0.124968 0.0990471 0.248931
848 1 0.0750533 0.142063 0.25223
849 1 0.187222 0.0823065 0.191059
850 1 0.222753 0.15246 0.191411
851 1 0.232968 0.0828731 0.237875
852 1 0.198032 0.151133 0.267743
853 1 0.274879 0.118114 0.195209
854 1 0.365351 0.14697 0.216164
855 1 0.33685 0.0945771 0.21917
856 1 0.297993 0.132654 0.253486
857 1 0.423531 0.0913572 0.20163
858 1 0.450034 0.14821 0.20623
859 1 0.474516 0.064886 0.236394
860 1 0.417551 0.161415 0.260589
861 1 0.499056 0.104043 0.191757
862 1 0.510929 0.153122 0.222131
863 1 0.537441 0.0945372 0.244951
864 1 0.47172 0.124309 0.26345
865 1 0.594251 0.0830791 0.22346
866 1 0.648352 0.0830116 0.17897
867 1 0.649507 0.117649 0.242233
868 1 0.635818 0.184151 0.234103
869 1 0.704535 0.109579 0.191945
870 1 0.752738 0.158917 0.188654
871 1 0.764583 0.115384 0.240246
872 1 0.709407 0.145267 0.245425
873 1 0.79998 0.0971999 0.1892
874 1 0.842193 0.149084 0.193676
875 1 0.860848 0.0913634 0.248938
876 1 0.811719 0.160388 0.242854
877 1 0.885564 0.106705 0.186158
878 1 0.964753 0.173914 0.194845
879 1 0.939816 0.102522 0.227621
880 1 0.892847 0.145551 0.248294
881 1 0.0107896 0.216853 0.187269
882 1 0.0444267 0.266699 0.21102
883 1 0.0438594 0.199767 0.256224
884 1 0.996887 0.252498 0.257219
885 1 0.0899067 0.196359 0.219322
886 1 0.137957 0.237866 0.204554
887 1 0.142588 0.204879 0.254523
888 1 0.0919598 0.247881 0.253052
889 1 0.194909 0.207266 0.221431
890 1 0.243297 0.257611 0.209282
891 1 0.250876 0.200604 0.243179
892 1 0.19947 0.269158 0.252383