ITEM: TIMESTEP
57100
ITEM: NUMBER OF ATOMS
4000
ITEM: BOX BOUNDS pp pp pp
0.0000000000000000e+00 1.6795961913825074e+01
0.0000000000000000e+00 1.6795961913825074e+01
0.0000000000000000e+00 1.6795961913825074e+01
ITEM: ATOMS id type xs ys zs
1 1 0.0498957 0.522039 0.957337
2 1 0.946174 0.943678 0.92268
3 1 0.892679 0.898379 0.170122
4 1 0.663224 0.806213 0.0808276
5 1 0.122367 0.100871 0.62349
6 1 0.534157 0.814549 0.550936
7 1 0.906072 0.748271 0.602354
8 1 0.333572 0.0364788 0.365795
9 1 0.438434 0.188915 0.0783006
10 1 0.407045 0.25642 0.645514
11 1 0.317057 0.746382 0.0899199
12 1 0.374198 0.751824 0.891089
13 1 0.305283 0.995324 0.195967
14 1 0.498254 0.713119 0.778806
15 1 0.650229 0.22591 0.186989
16 1 0.309655 0.644853 0.0746058
17 1 0.840522 0.376403 0.665553
18 1 0.449445 0.844232 0.658476
19 1 0.70283 0.982913 0.439005
20 1 0.643819 0.0351733 0.879227
21 1 0.636319 0.810749 0.247136
22 1 0.723838 0.227514 0.938193
23 1 0.647778 0.179553 0.823587
24 1 0.634662 0.874315 0.962894
25 1 0.904582 0.965612 0.0197126
26 1 0.689938 0.343448 0.0967641
27 1 0.0555436 0.056033 0.136414
28 1 0.448128 0.896204 0.913673
29 1 0.182832 0.742074 0.17455
30 1 0.809586 0.703931 0.827543
31 1 0.0416154 0.997472 0.0751024
32 1 0.272025 0.000402086 0.146672
33 1 0.0704914 0.885545 0.0625925
34 1 0.824444 0.104798 0.151454
35 1 0.281755 0.824202 0.303105
36 1 0.99923 0.11051 0.756735
37 1 0.621251 0.688276 0.00598711
38 1 0.526945 0.896449 0.173809
39 1 0.0534381 0.0928996 0.724763
40 1 0.980595 0.847299 0.282822
41 1 0.89552 0.166691 0.751084
42 1 0.865277 0.0174936 0.415163
43 1 0.814764 0.257264 0.326333
44 1 0.237111 0.754124 0.317629
45 1 0.865008 0.0155959 0.873006
46 1 0.680264 0.357873 0.00168465
47 1 0.541595 0.739621 0.217824
48 1 0.238286 0.397875 0.165557
49 1 0.208425 0.35464 0.629785
50 1 0.581457 0.780697 0.231214
51 1 0.541707 0.858283 0.32287
52 1 0.308215 0.0858626 1.00006
53 1 0.377732 0.212335 0.0704909
54 1 0.128521 0.853692 0.882393
55 1 0.709275 0.37723 0.252082
56 1 0.511816 0.0751096 0.061397
57 1 0.392385 0.406761 0.298593
58 1 0.592805 0.166192 0.0886712
59 1 0.078275 0.262855 0.362687
60 1 0.391096 0.340115 0.330801
61 1 0.464689 0.418611 0.0143258
62 1 0.243656 0.227071 0.078722
63 1 0.375203 0.0989805 0.0263322
64 1 0.456392 0.161506 0.50788
65 1 0.548924 0.304767 0.0305242
66 1 0.643432 0.629626 0.211178
67 1 0.261737 0.458129 0.198537
68 1 0.914256 0.523036 0.0643907
69 1 0.361403 0.255765 0.966883
70 1 0.793587 0.092518 0.796595
71 1 0.750396 0.272259 0.280272
72 1 0.409902 0.158362 0.0138643
73 1 0.774666 0.198796 0.860723
74 1 0.0955247 0.759131 0.0998972
75 1 0.645131 0.688245 0.907188
76 1 0.810086 0.973515 0.145747
77 1 0.716218 0.141992 0.0423567
78 1 0.0415486 0.777183 0.462898
79 1 0.651889 0.92996 0.966019
80 1 0.392673 0.345523 0.0834476
81 1 0.0376488 0.182476 0.888289
82 1 0.973204 0.775105 0.862868
83 1 0.967257 0.879485 0.366282
84 1 0.478243 0.335616 0.154803
85 1 0.833024 0.134144 0.624847
86 1 0.0260947 0.352381 0.945417
87 1 0.614884 0.25903 0.706696
88 1 0.0958195 0.895546 0.704619
89 1 0.489224 0.907192 0.287938
90 1 0.256453 0.0955267 0.905983
91 1 0.98352 0.354815 0.764813
92 1 0.234041 0.704671 0.0874131
93 1 0.344487 0.136339 0.826881
94 1 0.98565 0.908872 0.887376
95 1 0.366972 0.541391 0.660421
96 1 0.46274 0.243024 0.0524654
97 1 0.27096 0.318629 0.16903
98 1 0.695686 0.822257 0.226649
99 1 0.343423 0.0846323 0.333863
100 1 0.634906 0.206272 0.751348
101 1 0.812719 0.368239 0.496121
102 1 0.283648 0.878696 0.452626
103 1 0.818688 0.488973 0.0852579
104 1 0.485503 0.172615 0.150332
105 1 0.0399608 0.989189 0.851877
106 1 0.739185 0.25262 0.662935
107 1 0.641486 0.56302 0.436364
108 1 0.887555 0.11079 0.939213
109 1 0.0652224 0.881642 0.515785
110 1 0.692476 0.118291 0.96368
111 1 0.593336 0.828474 0.708483
112 1 0.417408 0.285211 0.0682524
113 1 0.450211 0.113189 0.0237258
114 1 0.803137 0.640781 0.466683
115 1 0.421766 0.216451 0.372059
116 1 0.378111 0.705667 0.485552
117 1 0.284138 0.955506 0.308238
118 1 0.435167 0.0812679 0.326734
119 1 0.00977025 0.203191 0.280867
120 1 0.667499 0.313554 0.922502
121 1 0.433967 0.518498 0.700615
122 1 0.156279 0.976944 0.898093
123 1 0.0964281 0.413987 0.114849
124 1 0.245485 0.674609 0.840038
125 1 0.221528 0.382867 0.0729315
126 1 0.34307 0.352404 0.376947
127 1 0.922162 0.926119 0.696729
128 1 0.111557 0.572862 0.841447
129 1 0.609775 0.250574 0.418133
130 1 0.860441 0.534946 0.237638
131 1 0.977892 0.347461 0.625619
132 1 0.404796 0.410324 0.0017136
133 1 0.927065 0.04699 0.798014
134 1 0.0968245 0.683146 0.743001
135 1 0.372252 0.427527 0.0543407
136 1 0.230071 0.043565 0.575942
137 1 0.534975 0.181746 0.950509
138 1 0.302771 0.0125174 0.93072
139 1 0.820644 0.516863 0.202099
140 1 0.00776643 0.170344 0.537611
141 1 0.1827 0.0153807 0.448671
142 1 0.287797 0.265107 0.959432
143 1 0.246266 0.283218 0.126318
144 1 0.614099 0.00370991 0.489893
145 1 0.946693 0.394001 0.647011
146 1 0.667163 0.617682 0.109921
147 1 0.211086 0.425149 0.0251993
148 1 0.390556 0.378811 0.830496
149 1 0.151336 0.236669 0.206464
150 1 0.91405 0.399889 0.0466926
151 1 0.127331 0.169951 0.105602
152 1 0.955851 0.594999 0.767713
153 1 0.905031 0.937828 0.352417
154 1 0.385682 0.313831 0.945024
155 1 0.740686 0.400818 0.482665
156 1 0.890702 0.326695 0.911824
157 1 0.841907 0.29673 0.95864
158 1 0.117872 0.208756 0.554296
159 1 0.61757 0.260702 0.934661
160 1 0.754792 0.724608 0.196922
161 1 0.987326 0.205932 0.0955521
162 1 0.888206 0.204741 0.0315526
163 1 0.138398 0.386057 0.291951
164 1 0.0889446 0.675594 0.939011
165 1 0.994351 0.577649 0.806468
166 1 0.472338 0.826648 0.0994325
167 1 0.138734 0.187139 0.395921
168 1 0.00613895 0.884939 0.542902
169 1 0.439244 0.768614 0.89091
170 1 0.240156 0.637004 0.3961
171 1 0.400638 0.566867 0.309307
172 1 0.197923 0.382167 0.282665
173 1 0.248965 0.466145 0.122357
174 1 0.849467 0.666761 0.178925
175 1 0.285874 0.435358 0.48758
176 1 0.268538 0.9995 0.80337
177 1 0.370751 0.572894 0.932035
178 1 0.771018 0.525253 0.237629
179 1 0.528298 0.25231 0.856734
180 1 0.0832333 0.273933 0.152575
181 1 0.394267 0.554149 0.196476
182 1 0.80609 0.281576 0.724875
183 1 0.269761 0.602176 0.169895
184 1 0.474375 0.585095 0.741313
185 1 0.65983 0.884802 0.626502
186 1 0.0147306 0.288307 0.145199
187 1 0.289005 0.495045 0.6552
188 1 0.177193 0.306973 0.0247237
189 1 0.797229 0.236617 0.811723
190 1 0.35083 0.140982 0.97942
191 1 0.711839 0.232276 0.245715
192 1 0.850534 0.552032 0.153326
193 1 0.369279 0.936951 0.0935735
194 1 0.858853 0.459678 0.99442
195 1 0.967518 0.54422 0.638217
196 1 0.911832 0.244587 0.982025
197 1 0.626831 0.351329 0.123976
198 1 0.291487 0.549171 0.00973496
199 1 0.115135 0.218359 0.482491
200 1 0.642927 0.646352 0.59267
201 1 0.00161875 0.326804 0.0660682
202 1 0.300896 0.628535 0.949889
203 1 0.0684603 0.471757 0.990806
204 1 0.147871 0.449875 0.0528697
205 1 0.324607 0.752717 0.487553
206 1 0.473531 0.418608 0.0769364
207 1 0.919097 0.704252 0.0592919
208 1 0.110766 0.904516 0.914027
209 1 0.095187 0.939682 0.358854
210 1 0.388701 0.880727 0.227771
211 1 0.152675 0.256791 0.0442953
212 1 0.181292 0.909163 0.0337123
213 1 0.911122 0.974557 0.879032
214 1 0.763161 0.571857 0.993509
215 1 0.131597 0.318211 0.855085
216 1 0.122605 0.567015 0.0858696
217 1 0.288399 0.556465 0.282426
218 1 0.421317 0.704823 0.209536
219 1 0.451021 0.00668258 0.153664
220 1 0.250367 0.822295 0.440724
221 1 0.455776 0.578536 0.00685694
222 1 0.36548 0.650462 0.0310169
223 1 0.688874 0.610303 0.404229
224 1 0.40095 0.584519 0.601976
225 1 0.579789 0.726967 0.906091
226 1 0.591901 0.0669819 0.781776
227 1 0.263485 0.890201 0.134537
228 1 0.272095 0.468394 0.279385
229 1 0.443594 0.455617 0.931852
230 1 0.122724 0.663355 0.0623718
231 1 0.0308757 0.488472 0.838479
232 1 0.200865 0.307546 0.161435
233 1 0.802697 0.913416 0.12803
234 1 0.998599 0.567634 0.221676
235 1 0.0458433 0.374241 0.0585443
236 1 0.684859 0.40044 0.805045
237 1 0.771693 0.178022 0.252875
238 1 0.404579 0.041788 0.818387
239 1 0.73211 0.446437 0.829441
240 1 0.822325 0.262023 0.192891
241 1 0.775082 0.935145 0.186778
242 1 0.373371 0.938656 0.864667
243 1 0.329815 0.918424 0.65936
244 1 0.265943 0.793007 0.00578925
245 1 0.952909 0.775289 0.0381769
246 1 0.0312434 0.80168 0.954661
247 1 0.213278 0.747893 0.905528
248 1 0.921805 0.849113 0.940954
249 1 0.238018 0.0146066 0.284444
250 1 0.966106 0.560118 0.861965
251 1 0.522285 0.754371 0.81491
252 1 0.985536 0.955333 0.857821
253 1 0.408557 0.836141 0.434116
254 1 0.212282 0.237089 0.884386
255 1 0.406989 0.43843 0.453421
256 1 0.334842 0.612627 0.190086
257 1 0.503746 0.373465 0.0440979
258 1 0.0518024 0.521255 0.624139
259 1 0.380923 0.745723 0.0636306
260 1 0.175753 0.474517 0.63195
261 1 0.60577 0.0239284 0.0357508
262 1 0.727168 0.437517 0.2775
263 1 0.210745 0.643744 0.344832
264 1 0.364896 0.424461 0.146404
265 1 0.545767 0.359461 0.97282
266 1 0.301547 0.601462 0.839975
267 1 0.516167 0.443579 0.0179807
268 1 0.974339 0.209851 0.160778
269 1 0.260245 0.765323 0.946356
270 1 0.15063 0.0115709 0.0535933
271 1 0.990072 0.331527 0.333295
272 1 0.137413 0.489321 0.882511
273 1 0.0293128 0.471395 0.781109
274 1 0.581012 0.0251335 0.964894
275 1 0.0911169 0.418929 0.646235
276 1 0.790334 0.190926 0.322877
277 1 0.863798 0.514073 0.945311
278 1 0.791803 0.482668 0.780375
279 1 0.610742 0.644772 0.398869
280 1 0.192437 0.942598 0.868395
281 1 0.0592239 0.770918 0.347312
282 1 0.203651 0.317657 0.866818
283 1 0.727444 0.746744 0.0348896
284 1 0.889004 0.9743 0.469018
285 1 0.0751334 0.689073 0.532564
286 1 0.0894039 0.206865 0.232724
287 1 0.4973 0.221777 0.996996
288 1 0.065575 0.450977 0.574799
289 1 0.829771 0.876355 0.180655
290 1 0.559978 0.0907354 0.628638
291 1 0.180312 0.873415 0.518492
292 1 0.452684 0.0211816 0.280637
293 1 0.307816 0.62651 0.367249
294 1 0.530327 0.885384 0.0876451
295 1 0.584793 0.509762 0.291824
296 1 0.353047 0.932673 0.158079
297 1 0.734394 0.451185 0.146038
298 1 0.313299 0.726581 0.290793
299 1 0.438157 0.807222 0.268977
300 1 0.950505 0.47223 0.74986
301 1 0.430691 0.613425 0.650297
302 1 0.723436 0.468679 0.195636
303 1 0.952567 0.798529 0.208813
304 1 0.71541 0.956417 0.700045
305 1 0.287643 0.373361 0.855276
306 1 0.497643 0.700665 0.434735
307 1 0.854375 0.230824 0.929208
308 1 0.567011 0.78471 0.0115321
309 1 0.109734 0.677168 0.850904
310 1 0.849275 0.126333 0.797365
311 1 0.240963 0.775272 0.538461
312 1 0.557603 0.519727 0.226806
313 1 0.941719 0.667882 0.971488
314 1 0.861986 0.904759 0.716899
315 1 0.388232 0.142069 0.442555
316 1 0.728699 0.645236 0.442636
317 1 0.630987 0.836988 0.79886
318 1 0.535611 0.910953 0.840165
319 1 0.99899 0.415854 0.0629686
320 1 0.359448 0.880819 0.9851
321 1 0.118966 0.783729 0.40855
322 1 0.658996 0.781211 0.0206854
323 1 0.418596 0.515879 0.369797
324 1 0.0665027 0.926665 0.154343
325 1 0.168819 0.600154 0.161184
326 1 0.0430587 0.0588672 0.783902
327 1 0.213017 0.828506 0.764302
328 1 0.131706 0.672217 0.245636
329 1 0.819874 0.543758 0.795268
330 1 0.93583 0.318167 0.196594
331 1 0.360782 0.851171 0.932085
332 1 0.32044 0.304154 0.88718
333 1 0.217647 0.986171 0.723163
334 1 0.880704 0.725326 0.525019
335 1 0.64878 0.951942 0.145621
336 1 0.0843842 0.789719 0.905856
337 1 0.750873 0.697426 0.81352
338 1 0.189594 0.0886664 0.0352689
339 1 0.513327 0.496577 0.648865
340 1 0.0885054 0.990691 0.173827
341 1 0.488289 0.686941 0.231248
342 1 0.525288 0.880231 0.973336
343 1 0.626448 0.905701 0.0265041
344 1 0.822953 0.21687 0.708818
345 1 0.836038 0.602383 0.987467
346 1 0.451047 0.520786 0.0993592
347 1 0.680534 0.18209 0.906785
348 1 0.566064 0.0499942 0.388746
349 1 0.361441 0.51798 0.480028
350 1 0.675192 0.699956 0.034153
351 1 0.691531 0.70956 0.140363
352 1 0.895084 0.906931 0.536956
353 1 0.237812 0.82415 0.702205
354 1 0.620371 0.728889 0.862043
355 1 0.878944 0.648973 0.989351
356 1 0.784783 0.443111 0.307888
357 1 0.33791 0.191915 0.265072
358 1 0.889077 0.0443573 0.729456
359 1 0.154586 0.682452 0.182609
360 1 0.971603 0.134784 0.105721
361 1 0.33794 0.650307 0.306196
362 1 0.208092 0.388086 0.745368
363 1 0.911808 0.819637 0.889246
364 1 0.670548 0.0910488 0.163328
365 1 0.0316606 0.855114 0.147697
366 1 0.274712 0.976019 0.744604
367 1 0.163277 0.0878311 0.190048
368 1 0.0727084 0.231672 0.610235
369 1 0.418175 0.0645331 0.0505697
370 1 0.0943639 0.553173 0.668021
371 1 0.306058 0.931322 0.982204
372 1 0.0902754 0.46835 0.795198
373 1 0.695264 0.65742 0.810274
374 1 0.77522 0.84639 0.389528
375 1 0.364366 0.591223 0.0900286
376 1 0.87811 0.958901 0.411411
377 1 0.444683 0.741587 0.772782
378 1 0.546421 0.78017 0.945125
379 1 0.501808 0.278829 0.305207
380 1 0.303175 0.819275 0.183127
381 1 0.811991 0.851469 0.0528043
382 1 0.585137 0.0531418 0.467415
383 1 0.993706 0.96383 0.458607
384 1 0.689817 0.929489 0.755428
385 1 0.861458 0.022947 0.979695
386 1 0.421716 0.369265 0.146283
387 1 0.478737 0.991267 0.750648
388 1 0.346893 0.22497 0.380767
389 1 0.0372516 0.098732 0.874636
390 1 0.59307 0.331315 0.994507
391 1 0.316905 0.825665 0.993982
392 1 0.246647 0.999462 0.640595
393 1 0.226758 0.704767 0.194395
394 1 0.814893 0.434309 0.830833
395 1 0.465318 0.53022 0.299052
396 1 0.0134856 0.412099 0.932432
397 1 0.25194 0.609933 0.741853
398 1 0.229393 0.757263 0.478815
399 1 0.386491 0.0706538 0.29741
400 1 0.751624 0.106164 0.158628
401 1 0.847351 0.0146623 0.672184
402 1 0.438174 0.0540273 0.75377
403 1 0.396373 0.502134 0.0633139
404 1 0.808386 0.157094 0.135725
405 1 0.526218 0.954806 0.396392
406 1 0.817836 0.205408 0.174415
407 1 0.238303 0.885276 0.263999
408 1 0.398251 0.956428 0.390873
409 1 0.132846 0.198851 0.0494646
410 1 0.0722807 0.473763 0.106928
411 1 0.121743 0.037684 0.366236
412 1 0.4481 0.118094 0.218511
413 1 0.306586 0.959261 0.904966
414 1 0.242973 0.920239 0.898965
415 1 0.679999 0.637718 0.291601
416 1 0.396281 0.0441036 0.100619
417 1 0.799249 0.483305 0.0320703
418 1 0.423249 0.468833 0.124729
419 1 0.692217 0.0343502 0.416388
420 1 0.209547 0.380644 0.806461
421 1 0.549734 0.183696 0.0109045
422 1 0.485171 0.0177252 0.383609
423 1 0.857239 0.50305 0.0406175
424 1 0.595449 0.00886532 0.346759
425 1 0.170939 0.195112 0.143784
426 1 0.629283 0.0177844 0.165939
427 1 0.70785 0.709135 0.396714
428 1 0.188956 0.122282 0.909876
429 1 0.81584 0.780544 0.0545867
430 1 0.377487 0.245284 0.154444
431 1 0.765205 0.713634 0.0877008
432 1 0.45151 0.282131 0.774759
433 1 0.821614 0.99126 0.822804
434 1 0.0233605 0.03858 0.897028
435 1 0.674045 0.0746271 0.29301
436 1 0.119779 0.12175 0.219571
437 1 0.402307 0.133512 0.956248
438 1 0.569077 0.401213 0.0424773
439 1 0.163269 0.659258 0.872616
440 1 0.438795 0.91313 0.329239
441 1 0.895682 0.119425 0.240368
442 1 0.220821 0.0967473 0.0831572
443 1 0.80303 0.337677 0.0782738
444 1 0.173341 0.218883 0.317341
445 1 0.886449 0.164566 0.684758
446 1 0.108985 0.188515 0.891928
447 1 0.786686 0.218431 0.544794
448 1 0.510584 0.066441 0.870163
449 1 0.0227528 0.0759094 0.955925
450 1 0.20474 0.866872 0.455624
451 1 0.889135 0.837439 0.725759
452 1 0.525595 0.808322 0.210659
453 1 0.0818904 0.192336 0.945561
454 1 0.116568 0.999479 0.849857
455 1 0.277839 0.675124 0.303183
456 1 0.57218 0.789694 0.854194
457 1 0.119758 0.947611 0.261655
458 1 0.429592 0.269747 0.130022
459 1 0.836714 0.1642 0.264215
460 1 0.139823 0.509946 0.553998
461 1 0.263429 0.84027 0.563103
462 1 0.0754937 0.0613252 0.904358
463 1 0.325113 0.859917 0.764711
464 1 0.719377 0.703382 0.299056
465 1 0.812524 0.959215 0.7077
466 1 0.765258 0.369099 0.966746
467 1 0.742384 0.876909 0.862622
468 1 0.362332 0.218841 0.445804
469 1 0.0957696 0.265271 0.212036
470 1 0.682014 0.272159 0.499772
471 1 0.976256 0.398634 0.122922
472 1 0.130433 0.245266 0.25792
473 1 0.030539 0.0718852 0.645922
474 1 0.221078 0.287092 0.695606
475 1 0.624888 0.132799 0.432952
476 1 0.845417 0.802888 0.91156
477 1 0.723841 0.936813 0.228377
478 1 0.409164 0.287557 0.275909
479 1 0.81503 0.34022 0.734022
480 1 0.569488 0.707453 0.178654
481 1 0.378312 0.421235 0.892148
482 1 0.823745 0.927475 0.75607
483 1 0.357693 0.0308896 0.957575
484 1 0.991351 0.215776 0.227988
485 1 0.0897064 0.351026 0.267535
486 1 0.124308 0.527748 0.202943
487 1 0.105462 0.504799 0.026799
488 1 0.963944 0.0135922 0.87622
489 1 0.0520099 0.347171 0.894011
490 1 0.0811854 0.315365 0.615663
491 1 0.508563 0.961267 0.787239
492 1 0.252542 0.508733 0.99795
493 1 0.198436 0.140459 0.458387
494 1 0.447315 0.855557 0.593864
495 1 0.358014 0.0262777 0.261295
496 1 0.522688 0.659056 0.741564
497 1 0.0528946 0.905917 0.90211
498 1 0.248174 0.167186 0.338907
499 1 0.0585943 0.0887306 0.0458268
500 1 0.321055 0.901256 0.812866
501 1 0.660548 0.115247 0.0769196
502 1 0.29887 0.25039 0.236489
503 1 0.486798 0.613828 0.154643
504 1 0.526722 0.69507 0.0849281
505 1 0.815339 0.701738 0.593713
506 1 0.244337 0.32338 0.323546
507 1 0.0470511 0.236961 0.191254
508 1 0.4827 0.158257 0.770881
509 1 0.604232 0.287331 0.0447783
510 1 0.0365798 0.842575 0.0851425
511 1 0.940385 0.994189 0.14126
512 1 0.539223 0.668555 0.336824
513 1 0.555594 0.146057 0.155672
514 1 0.968161 0.748578 0.0869447
515 1 0.189386 0.85769 0.202087
516 1 0.784712 0.306701 0.211573
517 1 0.802961 0.939659 0.832754
518 1 0.832749 0.763506 0.613266
519 1 0.050836 0.296809 0.424946
520 1 0.148694 0.855839 0.436854
521 1 0.582708 0.313452 0.928655
522 1 0.379321 0.450314 0.343425
523 1 0.702226 0.0220621 0.98415
524 1 0.258722 0.378522 0.018437
525 1 0.0773562 0.74492 0.94608
526 1 0.582309 0.109742 0.918213
527 1 0.0399407 0.789667 0.849458
528 1 0.327614 0.319612 0.593493
529 1 0.800491 0.411918 0.107057
530 1 0.235566 0.512204 0.162974
531 1 0.984785 0.254444 0.0340147
532 1 0.164806 0.259444 0.858489
533 1 0.335178 0.44095 0.583548
534 1 0.763829 0.91519 0.673559
535 1 0.233562 0.714044 0.277212
536 1 0.321069 0.436465 0.399434
537 1 0.427272 0.19883 0.823995
538 1 0.646891 0.300647 0.980053
539 1 0.073903 0.873207 0.326475
540 1 0.47068 0.36684 0.205237
541 1 0.552842 0.473498 0.11572
542 1 0.456235 0.65848 0.176578
543 1 0.591932 0.115329 0.486943
544 1 0.166002 0.384095 0.000178652
545 1 0.313901 0.368583 0.298694
546 1 0.34371 0.591969 0.685295
547 1 0.536338 0.552044 0.902683
548 1 0.739751 0.036045 0.0515904
549 1 0.89718 0.936692 0.0679966
550 1 0.856685 0.311868 0.148055
551 1 0.993013 0.397782 0.583328
552 1 0.151389 0.151324 0.881371
553 1 0.758575 0.10993 0.240065
554 1 0.767743 0.552087 0.523258
555 1 0.972918 0.476961 0.980801
556 1 0.0715219 0.152402 0.690674
557 1 0.201926 0.405467 0.885162
558 1 0.830373 0.177852 0.0832886
559 1 0.00606724 0.982485 0.00306934
560 1 0.837071 0.308018 0.245841
561 1 0.688195 0.0715326 0.472147
562 1 0.0513473 0.318357 0.177747
563 1 0.1604 0.440247 0.866499
564 1 0.464357 0.0543181 0.20797
565 1 0.898239 0.903815 0.950593
566 1 0.768363 0.813532 0.254847
567 1 0.439124 0.28455 0.460878
568 1 0.773758 0.542685 0.376383
569 1 0.90199 0.382338 0.850016
570 1 0.188042 0.405478 0.21866
571 1 0.0911032 0.740441 0.862704
572 1 0.355057 0.508825 -1.88669e-05
573 1 0.345106 0.65951 0.656177
574 1 0.257766 0.177122 0.48313
575 1 0.386706 0.41133 0.653975
576 1 0.250894 0.88707 0.0518153
577 1 0.0545319 0.3253 0.0336144
578 1 0.429166 0.196054 0.767428
579 1 0.650607 0.594902 0.957833
580 1 0.605131 0.812328 0.974287
581 1 0.471355 0.613454 0.876891
582 1 0.640889 0.515181 0.0897165
583 1 0.451391 0.370648 0.85944
584 1 0.111018 0.410285 0.0209866
585 1 0.31762 0.404421 0.778078
586 1 0.0466755 0.408434 0.886838
587 1 0.0291396 0.90138 0.296888
588 1 0.170723 0.158492 0.0258785
589 1 0.634217 0.57914 0.632314
590 1 0.881676 0.326548 0.849364
591 1 0.961498 0.273176 0.963209
592 1 0.539481 0.647244 0.943443
593 1 0.649908 0.371267 0.359113
594 1 0.951432 0.311216 0.265326
595 1 0.434108 0.294772 0.00127931
596 1 0.958751 0.267965 0.171339
597 1 0.0290571 0.653388 0.964873
598 1 0.0534365 0.820716 0.206
599 1 0.818269 0.172337 0.951725
600 1 0.714954 0.796414 0.723876
601 1 0.0863293 0.338264 0.100111
602 1 0.248717 0.268664 0.301868
603 1 0.078461 0.919929 0.435753
604 1 0.385494 0.918994 0.269623
605 1 0.218045 0.909683 0.0888094
606 1 0.736934 0.613661 0.834322
607 1 0.201121 0.660068 0.806327
608 1 0.318905 0.18073 0.877519
609 1 0.854438 0.755306 0.104195
610 1 0.932727 0.447593 0.22865
611 1 0.411363 0.761234 0.235632
612 1 0.251227 0.790201 0.191344
613 1 0.395016 0.29664 0.199564
614 1 0.0755199 0.445144 0.0500961
615 1 0.364786 0.0861433 0.943857
616 1 0.134025 0.736175 0.211729
617 1 0.68823 0.339354 0.807504
618 1 0.257615 0.424026 0.867938
619 1 0.223096 0.735254 0.412017
620 1 0.149451 0.0953458 0.315492
621 1 0.682792 0.644521 0.156611
622 1 0.654978 0.25856 0.365379
623 1 0.95566 0.56576 0.0319751
624 1 0.649326 0.254395 0.649421
625 1 0.0177996 0.725517 0.703783
626 1 0.128046 0.376707 0.0627454
627 1 0.582412 0.287494 0.864198
628 1 0.137265 0.435274 0.249493
629 1 0.789336 0.887853 0.228159
630 1 0.546576 0.786532 0.341967
631 1 0.904869 0.753722 0.173406
632 1 0.0704985 0.539306 0.0800896
633 1 0.101365 0.390999 0.353006
634 1 0.74558 0.432383 0.0487803
635 1 0.124662 0.416083 0.181585
636 1 0.812395 0.675324 0.131964
637 1 0.721368 0.0452689 0.183555
638 1 0.499207 0.616285 0.991088
639 1 0.808267 0.0122441 0.0336571
640 1 0.173711 0.541178 0.136361
641 1 0.511122 0.800275 0.872248
642 1 0.588469 0.764643 0.162984
643 1 0.5363 0.677347 0.896562
644 1 0.185377 0.417584 0.0994577
645 1 0.980157 0.114253 0.48243
646 1 0.34027 0.63695 0.471297
647 1 0.599987 0.858624 0.277397
648 1 0.0414705 0.92704 0.350824
649 1 0.0927875 0.0451724 0.203896
650 1 0.0534384 0.135725 0.925081
651 1 0.140463 0.903879 0.97326
652 1 0.986135 0.892006 0.1952
653 1 0.663425 0.523487 0.783988
654 1 0.862503 0.125725 0.436408
655 1 0.241382 0.528714 0.249077
656 1 0.320843 0.442161 0.6382
657 1 0.406018 0.912677 0.00157884
658 1 0.769651 0.604306 0.411287
659 1 0.60669 0.236151 0.811132
660 1 0.502919 0.819796 0.995193
661 1 0.23845 0.329365 0.519953
662 1 0.788925 0.649596 0.266623
663 1 0.636955 0.938373 0.361273
664 1 0.368913 0.575413 0.025594
665 1 0.563612 0.447886 0.320939
666 1 0.00652115 0.780107 0.249301
667 1 0.507117 0.461673 0.307761
668 1 0.107428 0.631999 0.111286
669 1 0.562153 0.375272 0.715895
670 1 0.662518 0.517335 0.723674
671 1 0.674329 0.414368 0.0631584
672 1 0.97534 0.299009 0.80566
673 1 0.836119 0.70677 0.369271
674 1 0.185054 0.79377 0.206873
675 1 0.286925 0.156534 0.827047
676 1 0.136337 0.0385514 0.432609
677 1 0.563966 0.700485 0.0122331
678 1 0.86727 0.578147 0.930861
679 1 0.0466666 0.974331 0.133485
680 1 0.963563 0.515059 0.100539
681 1 0.284618 0.109836 0.356115
682 1 0.867946 0.745615 0.922592
683 1 0.379046 0.969331 0.917723
684 1 0.651607 0.903816 0.100481
685 1 0.204094 0.873695 0.986336
686 1 0.250157 0.570284 0.439917
687 1 0.789935 0.74499 0.551601
688 1 0.33666 0.917205 0.933938
689 1 0.138326 0.322496 0.920751
690 1 0.283489 0.996668 0.254344
691 1 0.631517 0.0748725 0.433697
692 1 0.845736 0.862668 0.111038
693 1 0.557533 0.640404 0.0053319
694 1 0.710118 0.800136 0.116095
695 1 0.134865 0.35532 0.613563
696 1 0.304862 0.202667 0.569021
697 1 0.739166 0.380467 0.0788424
698 1 0.212798 0.496479 0.817741
699 1 0.532882 0.84064 0.154036
700 1 0.770002 0.378907 0.255282
701 1 0.438413 0.21212 0.13786
702 1 0.776249 0.875376 0.9439
703 1 0.489892 0.406672 0.499822
704 1 0.00370522 0.145362 0.950789
705 1 0.313642 0.786781 0.0428414
706 1 0.489445 0.794554 0.382311
707 1 0.973064 0.807736 0.345279
708 1 0.666948 0.0795735 0.663502
709 1 0.280199 0.922996 0.403396
710 1 0.92842 0.796106 0.700321
711 1 0.274407 0.505623 0.934327
712 1 0.948381 0.871001 0.730936
713 1 0.370971 0.77436 0.609935
714 1 0.965985 0.521188 0.805134
715 1 0.228785 0.531939 0.303799
716 1 0.451503 0.488085 0.635272
717 1 0.485664 0.847057 0.19232
718 1 0.41445 0.464894 0.794145
719 1 0.418751 0.967862 0.60202
720 1 0.788165 0.740073 0.402229
721 1 0.892582 0.0295278 0.171831
722 1 0.445084 0.633384 0.997927
723 1 0.254327 0.638217 0.111344
724 1 0.285356 0.848882 0.393896
725 1 0.249821 0.228932 0.590142
726 1 0.301058 0.303447 0.364879
727 1 0.0892621 0.125096 0.323924
728 1 0.818288 0.606054 0.915472
729 1 0.363559 0.80991 0.228955
730 1 0.990354 0.709415 0.856056
731 1 0.411436 0.629178 0.208093
732 1 0.548211 0.765532 0.402895
733 1 0.0275097 0.604468 0.336429
734 1 0.575276 0.787354 0.665933
735 1 0.227004 0.955613 0.675761
736 1 0.14925 0.0349374 0.807222
737 1 0.320601 0.479201 0.0477488
738 1 0.219175 0.222962 0.406849
739 1 0.446182 0.893771 0.503286
740 1 0.301197 0.744093 0.995091
741 1 0.148052 0.636762 0.574561
742 1 0.55573 0.0456084 0.327707
743 1 0.37896 0.669 0.563208
744 1 0.393511 0.160687 0.512154
745 1 0.550044 0.895788 0.605348
746 1 0.662426 0.712633 0.963346
747 1 0.387813 0.174933 0.132795
748 1 0.939995 0.793597 0.141914
749 1 0.697814 0.273082 0.954665
750 1 0.729802 0.283175 0.126717
751 1 0.723541 0.61659 0.96791
752 1 0.49852 0.617642 0.216666
753 1 0.59897 0.0790744 0.173927
754 1 0.149471 0.288359 0.768874
755 1 0.977944 0.344553 0.14609
756 1 0.770435 0.655131 0.0746
757 1 0.414363 0.0843284 0.545805
758 1 0.845653 0.8114 0.0159471
759 1 0.504308 0.923689 0.336735
760 1 0.840839 0.901611 0.807051
761 1 0.180918 0.644132 0.0858254
762 1 0.202238 0.187152 0.0905179
763 1 0.0773195 0.848952 0.014592
764 1 0.867417 0.147928 0.0359496
765 1 0.102892 0.114822 0.88767
766 1 0.315327 0.214967 0.934583
767 1 0.215214 0.929798 0.57075
768 1 0.944869 0.593254 0.0892726
769 1 0.267538 0.837163 0.646476
770 1 0.980688 0.903583 0.249862
771 1 0.304448 0.826691 0.806898
772 1 0.96127 0.184698 0.752227
773 1 0.382002 0.296379 0.447258
774 1 0.993638 0.302137 0.505766
775 1 0.332034 0.0651308 0.415036
776 1 0.37169 0.0210355 0.175383
777 1 0.863827 0.247937 0.818746
778 1 0.460945 0.774803 0.502635
779 1 0.232548 0.988053 0.219527
780 1 0.313145 0.969963 0.539646
781 1 0.658098 0.366417 0.188136
782 1 0.504372 0.716966 0.305864
783 1 0.50491 0.964657 0.84353
784 1 0.344088 0.975384 0.981078
785 1 0.86425 0.711249 0.303362
786 1 0.968358 0.036974 0.0195676
787 1 0.777236 0.240985 0.139724
788 1 0.707107 0.064177 0.886859
789 1 0.699112 0.720015 0.495409
790 1 0.571308 0.940453 0.337659
791 1 0.435255 0.078571 0.261411
792 1 0.336564 0.101738 0.25356
793 1 0.785942 0.98249 0.354557
794 1 0.7307 0.793912 0.191494
795 1 0.338348 0.913797 0.223312
796 1 0.604482 0.659191 0.159439
797 1 0.937244 0.881892 0.997362
798 1 0.838553 0.469198 0.146921
799 1 0.187061 0.821878 0.0944225
800 1 0.659277 0.635486 0.876065
801 1 0.915163 0.796837 0.826121
802 1 0.290785 0.93657 0.180031
803 1 0.178045 0.114925 0.259219
804 1 0.689864 0.288017 0.851282
805 1 0.566934 0.915397 0.13613
806 1 0.359933 0.468499 0.0998588
807 1 0.786899 0.354479 0.350898
808 1 0.470661 0.179716 0.957394
809 1 0.892368 0.0288536 0.931288
810 1 0.351841 0.863971 0.43298
811 1 0.0196479 0.155082 0.46805
812 1 2.07455e-06 0.0212213 0.436425
813 1 0.208743 0.053097 0.402444
814 1 0.441387 0.208356 0.0101292
815 1 0.262997 0.487302 0.76413
816 1 0.359239 0.143068 0.319627
817 1 0.11979 0.735877 0.526887
818 1 0.739922 0.983933 0.578842
819 1 0.404512 0.673827 0.439877
820 1 0.169054 0.881168 0.0989873
821 1 0.736399 0.0895711 0.294083
822 1 0.183219 0.00640618 0.250761
823 1 0.518627 0.656822 0.491264
824 1 0.458353 0.27745 0.179548
825 1 0.683454 0.997181 0.147372
826 1 0.964095 0.590183 0.289155
827 1 0.980928 0.80487 0.920425
828 1 0.640739 0.673609 0.108622
829 1 0.0280377 0.153193 0.407174
830 1 0.254916 0.0134807 0.466905
831 1 0.529856 0.72287 0.947376
832 1 0.602888 0.957358 0.986425
833 1 0.499541 0.230896 0.143763
834 1 0.607551 0.167029 0.877898
835 1 0.934647 0.192449 0.814717
836 1 0.791962 0.777352 0.202794
837 1 0.712404 0.797563 0.895687
838 1 0.835476 0.111887 0.378765
839 1 0.95053 0.061894 0.131387
840 1 0.989591 0.0752234 0.306141
841 1 0.137999 0.0338337 0.634737
842 1 0.196013 0.835317 0.653362
843 1 0.142569 0.00799858 0.207278
844 1 0.450616 0.787841 0.979356
845 1 0.711149 0.335584 0.155122
846 1 0.113528 0.960945 0.0467076
847 1 0.981238 0.84219 0.871265
848 1 0.123508 0.55908 0.961695
849 1 0.0731262 0.165852 0.835233
850 1 0.100811 0.115199 0.957189
851 1 0.389658 0.927586 0.807512
852 1 0.133071 0.776724 0.989658
853 1 0.136153 0.715361 0.927245
854 1 0.482074 0.306602 0.0564239
855 1 0.997803 0.166737 0.824883
856 1 0.294316 0.137565 0.63736
857 1 0.108177 0.430819 0.400104
858 1 0.6263 0.455829 0.0568647
859 1 0.886228 0.976533 0.626077
860 1 0.589743 0.39349 0.550476
861 1 0.745003 0.161685 0.199485
862 1 0.526354 0.40122 0.278412
863 1 0.689157 0.922615 0.453231
864 1 0.422298 0.338268 0.513471
865 1 0.728244 0.206283 0.162466
866 1 0.084289 0.097866 0.823436
867 1 0.0972566 0.1498 0.0531561
868 1 0.838049 0.246409 0.391039
869 1 0.0779001 0.167932 0.281344
870 1 0.291915 0.0901437 0.115655
871 1 0.957135 0.1307 0.175616
872 1 0.31675 0.041038 0.149284
873 1 0.840312 0.323029 0.795816
874 1 0.822094 0.234149 0.254288
875 1 0.570808 0.620967 0.343157
876 1 0.851675 0.782841 0.815356
877 1 0.724999 0.704272 0.447648
878 1 0.0378707 0.0374933 0.0217614
879 1 0.0731719 0.203632 0.0881798
880 1 0.0500907 0.850182 0.263049
881 1 0.633059 0.69989 0.550404
882 1 0.787107 0.295347 0.926551
883 1 0.260156 0.208286 0.532337
884 1 0.878215 0.629708 0.215045
885 1 0.0437511 0.710888 0.355735
886 1 0.818364 0.229005 0.592773
887 1 0.959366 0.0861195 0.954844
888 1 0.695385 0.145086 0.136163
889 1 0.0344249 0.422683 0.123786
890 1 0.909289 0.415566 0.978763
891 1 0.458365 0.492918 0.884254
892 1 0.651374 0.0955832 0.896252
893 1 0.0968691 0.368079 0.851923
894 1 0.939944 0.583266 0.569725
895 1 0.638176 0.319294 0.584128
896 1 0.923469 0.121046 0.811786
897 1 0.183481 0.11085 0.83794
898 1 0.881919 0.337856 0.205246
899 1 0.570964 0.908452 0.0182214
900 1 0.371897 0.344537 0.547864
901 1 0.441578 0.298948 0.618884
902 1 0.467769 0.421109 0.134624
903 1 0.439356 0.814246 0.339078