ITEM: TIMESTEP
2200
ITEM: NUMBER OF ATOMS
4000
ITEM: BOX BOUNDS pp pp pp
0.0000000000000000e+00 1.6795961913825074e+01
0.0000000000000000e+00 1.6795961913825074e+01
0.0000000000000000e+00 1.6795961913825074e+01
ITEM: ATOMS id type xs ys zs
1 1 -0.000508909 0.00220926 0.995916
2 1 0.0538197 0.0534141 0.995536
3 1 0.0480838 0.999103 0.0448548
4 1 0.000496998 0.0500039 0.0482407
5 1 0.100306 0.994203 0.997512
6 1 0.151014 0.0482437 0.996453
7 1 0.151885 0.998747 0.0512655
8 1 0.101795 0.0490935 0.046632
9 1 0.19969 0.998824 0.99609
10 1 0.248454 0.0501599 0.99738
11 1 0.246389 0.000672075 0.046128
12 1 0.196675 0.0512507 0.0467211
13 1 0.301778 -0.00136912 1.00109
14 1 0.349073 0.0470073 -0.000942167
15 1 0.354106 -0.000738116 0.0505247
16 1 0.299533 0.0516151 0.0501219
17 1 0.403237 1.00049 0.999299
18 1 0.452712 0.0488425 0.996279
19 1 0.450827 0.00336193 0.0532223
20 1 0.399374 0.051913 0.04832
21 1 0.502588 0.00294232 0.00205891
22 1 0.551169 0.0505887 0.000328173
23 1 0.549142 0.00224544 0.05238
24 1 0.498455 0.0523587 0.0490266
25 1 0.599534 1.00105 1.00023
26 1 0.649803 0.0497967 0.00236685
27 1 0.647343 0.000486044 0.0512038
28 1 0.597532 0.0525316 0.0506416
29 1 0.701976 1.00026 0.000205477
30 1 0.751158 0.0522513 0.99805
31 1 0.751261 0.000433509 0.0503673
32 1 0.699438 0.0487054 0.051973
33 1 0.798722 0.998238 1.00281
34 1 0.851345 0.050397 0.00060452
35 1 0.849586 0.998848 0.0512165
36 1 0.798554 0.0507211 0.05225
37 1 0.89922 0.998223 0.997748
38 1 0.951308 0.049972 0.999998
39 1 0.954212 0.997406 0.0498287
40 1 0.901737 0.0466602 0.050502
41 1 0.00264568 0.098263 3.69422e-05
42 1 0.0514822 0.144841 -0.000265981
43 1 0.054002 0.100423 0.049846
44 1 0.00350634 0.146329 0.0499306
45 1 0.104171 0.0982565 0.998388
46 1 0.14945 0.151362 1.00005
47 1 0.151662 0.100438 0.0463135
48 1 0.102269 0.148072 0.0483141
49 1 0.199206 0.0987506 0.996453
50 1 0.250456 0.146246 0.998614
51 1 0.251414 0.101912 0.0492706
52 1 0.203235 0.146952 0.0489741
53 1 0.299971 0.0979658 -0.000849491
54 1 0.351816 0.147962 0.999961
55 1 0.347631 0.0995468 0.0511965
56 1 0.30091 0.150904 0.0514292
57 1 0.39882 0.0964671 1.00024
58 1 0.445618 0.152255 0.00181504
59 1 0.452456 0.0994483 0.0446714
60 1 0.40107 0.149828 0.0519402
61 1 0.504174 0.100449 0.999752
62 1 0.548568 0.14787 -0.000898345
63 1 0.550669 0.100971 0.0469254
64 1 0.498534 0.150253 0.0536858
65 1 0.601962 0.101217 0.999487
66 1 0.64801 0.147437 0.999626
67 1 0.652156 0.0996392 0.0518966
68 1 0.599007 0.151507 0.0554762
69 1 0.698453 0.0964881 0.00398039
70 1 0.751722 0.148157 0.99971
71 1 0.748979 0.0998718 0.0506362
72 1 0.700136 0.151534 0.0508627
73 1 0.800367 0.0977512 0.00268387
74 1 0.846898 0.148035 0.00622782
75 1 0.853864 0.0960018 0.0521384
76 1 0.7981 0.148154 0.0519207
77 1 0.898089 0.0990805 0.999965
78 1 0.948145 0.147714 1.00042
79 1 0.951429 0.0992765 0.0492521
80 1 0.898544 0.147619 0.0534542
81 1 0.00398959 0.194411 0.000342931
82 1 0.0483178 0.245798 0.995991
83 1 0.0540655 0.198536 0.0501727
84 1 0.00366584 0.24471 0.0493584
85 1 0.0976974 0.19799 0.998846
86 1 0.152559 0.247577 1.00091
87 1 0.151484 0.198928 0.0492233
88 1 0.102869 0.247931 0.0477824
89 1 0.202652 0.196007 7.12495e-05
90 1 0.251469 0.248255 0.00194345
91 1 0.248287 0.198639 0.0482745
92 1 0.196976 0.247877 0.0470684
93 1 0.302642 0.198673 0.00108812
94 1 0.353823 0.248399 0.000827416
95 1 0.349982 0.202929 0.0499509
96 1 0.300038 0.249462 0.0479671
97 1 0.399691 0.198287 0.00616889
98 1 0.449332 0.249967 0.999999
99 1 0.448524 0.199294 0.0555466
100 1 0.402385 0.250245 0.053275
101 1 0.499523 0.20118 0.000366166
102 1 0.552606 0.25055 -0.00141929
103 1 0.551864 0.200738 0.0521445
104 1 0.499797 0.248768 0.053782
105 1 0.599288 0.199145 0.000937463
106 1 0.647863 0.248065 0.00211627
107 1 0.648853 0.195336 0.0501931
108 1 0.600782 0.247007 0.049335
109 1 0.700673 0.200582 0.000301507
110 1 0.749964 0.252685 0.997466
111 1 0.751331 0.201474 0.0504414
112 1 0.699446 0.250314 0.0479741
113 1 0.802097 0.198259 0.999147
114 1 0.849987 0.249537 0.996762
115 1 0.846721 0.201962 0.0484307
116 1 0.80059 0.247095 0.0505421
117 1 0.89966 0.200178 0.999786
118 1 0.948557 0.246764 1.00009
119 1 0.949371 0.197084 0.0475408
120 1 0.901619 0.248161 0.048029
121 1 1.00117 0.29488 0.997746
122 1 0.049151 0.345816 2.52415e-05
123 1 0.0533809 0.290653 0.0482618
124 1 0.00378924 0.348555 0.0476201
125 1 0.103742 0.295338 0.997173
126 1 0.150717 0.347309 0.00254904
127 1 0.150584 0.297221 0.0469495
128 1 0.101745 0.351455 0.0503964
129 1 0.203007 0.298573 0.998445
130 1 0.247608 0.352597 0.00249733
131 1 0.246915 0.303771 0.0518176
132 1 0.199686 0.351986 0.0511608
133 1 0.297195 0.301603 0.000175855
134 1 0.347803 0.350286 0.00335538
135 1 0.350616 0.29774 0.0508027
136 1 0.29927 0.352727 0.0504401
137 1 0.399626 0.29898 0.0024781
138 1 0.45016 0.349673 0.000491963
139 1 0.449348 0.300114 0.0491021
140 1 0.398325 0.350573 0.0498178
141 1 0.503106 0.297703 0.00276396
142 1 0.551464 0.348537 -0.0013146
143 1 0.551473 0.297771 0.0503347
144 1 0.500196 0.350144 0.0512984
145 1 0.599303 0.29744 0.00200415
146 1 0.646517 0.348502 0.000757116
147 1 0.648978 0.298868 0.0499145
148 1 0.599224 0.348415 0.050181
149 1 0.698611 0.298597 1.00065
150 1 0.748745 0.349051 -0.00164755
151 1 0.749724 0.296899 0.0489149
152 1 0.700507 0.346932 0.0484037
153 1 0.797964 0.30229 0.998417
154 1 0.850107 0.350471 0.00106997
155 1 0.850003 0.299695 0.050346
156 1 0.799826 0.348946 0.0481359
157 1 0.898237 0.300211 0.99813
158 1 0.952592 0.347986 0.997092
159 1 0.953531 0.300358 0.0482859
160 1 0.90116 0.350083 0.0505243
161 1 -0.00108764 0.400229 -0.00145016
162 1 0.0520413 0.448997 0.999076
163 1 0.0502421 0.398409 0.0472631
164 1 0.996727 0.448971 0.0481883
165 1 0.099431 0.395848 0.99925
166 1 0.151055 0.448221 1.00068
167 1 0.149067 0.400937 0.0488354
168 1 0.100444 0.452502 0.0495482
169 1 0.198702 0.397828 0.00132367
170 1 0.252897 0.449112 0.00158049
171 1 0.248862 0.40159 0.0494438
172 1 0.19891 0.449915 0.0523849
173 1 0.301882 0.401296 1.00242
174 1 0.347694 0.452196 0.000876908
175 1 0.351635 0.401385 0.0530523
176 1 0.300757 0.451033 0.0525496
177 1 0.401065 0.401692 0.00189941
178 1 0.450111 0.451355 0.00145227
179 1 0.451877 0.397632 0.0524325
180 1 0.398058 0.451942 0.0505663
181 1 0.501384 0.397802 1.00172
182 1 0.550979 0.449109 0.00302016
183 1 0.552891 0.39858 0.0490824
184 1 0.500819 0.445997 0.0504459
185 1 0.598911 0.400298 -0.000731553
186 1 0.651356 0.449567 -0.000747307
187 1 0.645982 0.400449 0.048562
188 1 0.597593 0.450899 0.0522811
189 1 0.698129 0.396547 1.00143
190 1 0.753925 0.448182 0.00434426
191 1 0.749018 0.398286 0.0503422
192 1 0.696629 0.44924 0.0494505
193 1 0.800544 0.399772 0.00176869
194 1 0.852447 0.450025 0.996447
195 1 0.851655 0.398632 0.05118
196 1 0.79984 0.449684 0.0506688
197 1 0.89929 0.401642 0.00374586
198 1 0.950033 0.451338 0.996039
199 1 0.950206 0.398902 0.0473358
200 1 0.901911 0.447844 0.0499414
201 1 0.000840306 0.500357 0.996754
202 1 0.0504212 0.547746 0.997509
203 1 0.0502781 0.498647 0.0501179
204 1 0.994691 0.547428 0.049338
205 1 0.100434 0.498731 0.998988
206 1 0.150536 0.548262 0.997143
207 1 0.148779 0.500947 0.0517912
208 1 0.0985038 0.546275 0.0495119
209 1 0.199525 0.496622 0.00207201
210 1 0.250926 0.546284 0.00101249
211 1 0.249101 0.499108 0.050821
212 1 0.197996 0.551835 0.0524743
213 1 0.298024 0.496502 -0.000406686
214 1 0.349785 0.546574 0.997902
215 1 0.350392 0.498966 0.0527998
216 1 0.30214 0.548705 0.0491961
217 1 0.400357 0.499037 0.00206781
218 1 0.452291 0.550992 0.0021601
219 1 0.450092 0.496073 0.0516275
220 1 0.400877 0.548677 0.048275
221 1 0.500605 0.497132 0.00197282
222 1 0.543488 0.553646 0.996895
223 1 0.54802 0.501434 0.0512368
224 1 0.500112 0.549234 0.0532216
225 1 0.598201 0.502518 0.00192059
226 1 0.652484 0.54817 0.00250875
227 1 0.649477 0.496072 0.0521521
228 1 0.600637 0.553241 0.0516108
229 1 0.702088 0.498098 0.00383613
230 1 0.749141 0.549608 0.998512
231 1 0.750209 0.499316 0.0518063
232 1 0.69883 0.547925 0.0526118
233 1 0.800335 0.49894 -0.00139111
234 1 0.850809 0.546429 0.999491
235 1 0.849064 0.497882 0.0490153
236 1 0.797621 0.547698 0.0478879
237 1 0.900821 0.498412 1.00005
238 1 0.949212 0.54773 0.997151
239 1 0.948185 0.49828 0.047906
240 1 0.898921 0.548316 0.0485196
241 1 0.999624 0.60017 0.999178
242 1 0.0487425 0.652434 0.996764
243 1 0.0473163 0.599873 0.0477738
244 1 -0.00115448 0.649125 0.0499142
245 1 0.100193 0.600708 1.00183
246 1 0.150147 0.649561 0.00183407
247 1 0.148098 0.597532 0.0499162
248 1 0.0980214 0.649848 0.0507939
249 1 0.197124 0.60112 0.997961
250 1 0.250654 0.651199 -0.00141189
251 1 0.251904 0.599314 0.0499981
252 1 0.199337 0.651783 0.0491534
253 1 0.297063 0.598732 0.000462153
254 1 0.349893 0.655496 0.000272542
255 1 0.350371 0.606112 0.0515742
256 1 0.296682 0.656532 0.0519509
257 1 0.397581 0.606934 1.00133
258 1 0.449261 0.657743 1.00036
259 1 0.447545 0.604408 0.045233
260 1 0.398379 0.658244 0.0520141
261 1 0.498242 0.600321 0.0025893
262 1 0.549356 0.650047 1.00022
263 1 0.54737 0.602344 0.0492886
264 1 0.498531 0.652624 0.048305
265 1 0.601839 0.598512 0.00188265
266 1 0.650435 0.648604 0.00222199
267 1 0.648534 0.601959 0.0535282
268 1 0.59913 0.647944 0.0506234
269 1 0.699131 0.597788 0.00275083
270 1 0.750842 0.646982 0.00071809
271 1 0.752788 0.596166 0.0508974
272 1 0.702911 0.644953 0.0520905
273 1 0.802333 0.597733 0.998578
274 1 0.849189 0.648877 0.000837679
275 1 0.847732 0.598897 0.0494674
276 1 0.800193 0.648855 0.0472539
277 1 0.899836 0.600574 1.00117
278 1 0.949607 0.64943 1.00155
279 1 0.949777 0.601074 0.0483365
280 1 0.899938 0.648064 0.0516619
281 1 0.999524 0.700639 1.0004
282 1 0.0498773 0.747594 0.00191412
283 1 0.049017 0.698149 0.0486402
284 1 1.00063 0.749884 0.0506845
285 1 0.104743 0.702134 0.998736
286 1 0.151714 0.749517 0.998873
287 1 0.147849 0.699908 0.0516319
288 1 0.100321 0.747291 0.0506532
289 1 0.19935 0.700225 0.998101
290 1 0.253525 0.751771 0.000729735
291 1 0.247913 0.700911 0.0515767
292 1 0.199356 0.752243 0.0473364
293 1 0.301255 0.703236 0.999164
294 1 0.353411 0.753494 1.00003
295 1 0.346279 0.706758 0.0478531
296 1 0.300458 0.75478 0.0502013
297 1 0.398925 0.704122 0.997319
298 1 0.450463 0.751668 0.997883
299 1 0.452501 0.704858 0.0483377
300 1 0.400576 0.754672 0.0506216
301 1 0.502022 0.701199 0.997738
302 1 0.553337 0.749444 0.999691
303 1 0.548188 0.700014 0.0471869
304 1 0.505488 0.750857 0.0476398
305 1 0.598004 0.697373 0.00319851
306 1 0.648859 0.751758 0.00198528
307 1 0.650787 0.697191 0.0519541
308 1 0.600872 0.749545 0.0504179
309 1 0.700681 0.697448 0.00197275
310 1 0.75291 0.752261 0.999063
311 1 0.751121 0.698399 0.053966
312 1 0.702584 0.752515 0.0498461
313 1 0.800876 0.699441 0.00270838
314 1 0.849826 0.748648 0.996995
315 1 0.848018 0.698668 0.0506002
316 1 0.800462 0.750513 0.0500494
317 1 0.896962 0.695499 0.00166874
318 1 0.950845 0.751538 0.000522587
319 1 0.948622 0.699964 0.0479004
320 1 0.900207 0.746957 0.0503385
321 1 0.00352364 0.797545 0.999711
322 1 0.0492061 0.850938 0.998817
323 1 0.0524073 0.797461 0.0519169
324 1 0.000742232 0.846874 0.048761
325 1 0.098848 0.798946 1.00123
326 1 0.146957 0.851904 0.997456
327 1 0.15113 0.79827 0.048848
328 1 0.0988768 0.845001 0.0510989
329 1 0.20062 0.799474 0.997662
330 1 0.253849 0.847992 0.00183491
331 1 0.248317 0.800814 0.050126
332 1 0.201093 0.8506 0.050997
333 1 0.302807 0.798895 0.000819962
334 1 0.351543 0.854746 1.00215
335 1 0.353356 0.804489 0.0509846
336 1 0.29912 0.851736 0.0525332
337 1 0.401193 0.801123 -0.00158391
338 1 0.45209 0.847087 -0.00270107
339 1 0.450769 0.798953 0.0506984
340 1 0.402403 0.852123 0.0503561
341 1 0.501937 0.798042 0.998349
342 1 0.549153 0.850666 1.00022
343 1 0.55146 0.801179 0.0516417
344 1 0.50137 0.848244 0.0463127
345 1 0.599382 0.80112 0.99958
346 1 0.649734 0.850458 1.00195
347 1 0.652885 0.800084 0.0505522
348 1 0.601693 0.851351 0.0522868
349 1 0.699614 0.799866 -0.00183479
350 1 0.752899 0.848197 0.000982346
351 1 0.752155 0.799813 0.0521188
352 1 0.702071 0.849756 0.0482204
353 1 0.803107 0.800384 0.999171
354 1 0.850307 0.851034 0.998724
355 1 0.855065 0.798219 0.0490011
356 1 0.804354 0.847533 0.0496375
357 1 0.902543 0.795724 0.998761
358 1 0.951377 0.848138 0.999333
359 1 0.948536 0.797991 0.051596
360 1 0.900645 0.849543 0.0489021
361 1 0.999432 0.899031 0.994969
362 1 0.0472361 0.944785 0.996359
363 1 0.0508776 0.89974 0.0468934
364 1 0.000368337 0.944503 0.0479102
365 1 0.0999003 0.899503 0.99821
366 1 0.150556 0.949897 0.998961
367 1 0.149949 0.902475 0.0497431
368 1 0.100747 0.949768 0.0491115
369 1 0.201323 0.898288 0.00281716
370 1 0.249539 0.951681 0.998981
371 1 0.249522 0.899701 0.0506716
372 1 0.200424 0.951188 0.0479569
373 1 0.299985 0.900415 0.999251
374 1 0.34975 0.946954 0.998892
375 1 0.35068 0.900107 0.0486776
376 1 0.300571 0.94894 0.0488585
377 1 0.402644 0.900662 1.00059
378 1 0.45283 0.949518 0.997497
379 1 0.452852 0.899939 0.0518601
380 1 0.401012 0.9519 0.0479513
381 1 0.496703 0.898757 0.995043
382 1 0.551274 0.952136 0.00337216
383 1 0.545346 0.901539 0.0469682
384 1 0.501172 0.955844 0.0517641
385 1 0.601265 0.900805 2.81545e-05
386 1 0.65061 0.94894 0.00354294
387 1 0.648447 0.899739 0.0506136
388 1 0.598364 0.948394 0.0504878
389 1 0.698304 0.897261 0.00205519
390 1 0.752251 0.950145 1.00056
391 1 0.751632 0.898273 0.0501051
392 1 0.702955 0.953306 0.0480429
393 1 0.802839 0.901473 0.00242336
394 1 0.85026 0.949731 0.999249
395 1 0.85201 0.899503 0.0484188
396 1 0.799483 0.945818 0.0504755
397 1 0.900459 0.900754 1.00061
398 1 0.950831 0.950027 0.996256
399 1 0.951331 0.899535 0.0459247
400 1 0.897083 0.949594 0.0493977
401 1 0.00273735 0.99755 0.0969531
402 1 0.0530552 0.046907 0.097716
403 1 0.0471137 0.999527 0.147321
404 1 0.000825189 0.049767 0.150846
405 1 0.101533 0.998433 0.0963688
406 1 0.152727 0.0516994 0.0997279
407 1 0.147587 0.999336 0.150449
408 1 0.101907 0.0492575 0.150491
409 1 0.201332 1.00064 0.100874
410 1 0.249211 0.0518768 0.100914
411 1 0.25109 0.00165111 0.1531
412 1 0.196332 0.0486079 0.151672
413 1 0.298163 -0.000823716 0.101217
414 1 0.350293 0.051103 0.103537
415 1 0.351316 1.00029 0.149196
416 1 0.298439 0.0511437 0.151021
417 1 0.400461 0.996486 0.100654
418 1 0.450756 0.0572747 0.103012
419 1 0.448784 0.997986 0.153275
420 1 0.400804 0.0483936 0.152172
421 1 0.498853 0.000286965 0.103945
422 1 0.549633 0.0499075 0.102611
423 1 0.551167 0.998467 0.151207
424 1 0.498493 0.0461235 0.153238
425 1 0.596649 0.00216124 0.102812
426 1 0.650912 0.0503313 0.1023
427 1 0.649158 0.00089235 0.152614
428 1 0.598127 0.0505067 0.150274
429 1 0.700213 1.00157 0.101567
430 1 0.75124 0.0502318 0.101609
431 1 0.753707 0.996541 0.154085
432 1 0.70239 0.0483171 0.152446
433 1 0.799751 0.99738 0.101449
434 1 0.851003 0.049989 0.104009
435 1 0.853863 0.000598324 0.153272
436 1 0.798619 0.0487243 0.152156
437 1 0.906335 0.00210866 0.0991842
438 1 0.956739 0.049715 0.0987121
439 1 0.952662 0.000775626 0.148845
440 1 0.902774 0.0492205 0.149642
441 1 0.00256888 0.0998694 0.0983606
442 1 0.0533824 0.147894 0.097443
443 1 0.049963 0.0999669 0.148921
444 1 0.00410652 0.147349 0.149795
445 1 0.10266 0.0999333 0.0981119
446 1 0.152753 0.148906 0.0997104
447 1 0.15393 0.101732 0.150538
448 1 0.099841 0.150007 0.148876
449 1 0.202325 0.0974904 0.101484
450 1 0.251214 0.14916 0.101414
451 1 0.252193 0.100854 0.151583
452 1 0.201768 0.14964 0.152349
453 1 0.303088 0.10213 0.099864
454 1 0.350126 0.151444 0.100611
455 1 0.3513 0.0994836 0.150864
456 1 0.301076 0.149792 0.152458
457 1 0.400123 0.101386 0.0997603
458 1 0.449829 0.14981 0.104742
459 1 0.444477 0.101629 0.153582
460 1 0.393513 0.151212 0.151492
461 1 0.499972 0.103329 0.099164
462 1 0.550285 0.15195 0.0990398
463 1 0.549611 0.0995987 0.156978
464 1 0.500774 0.150706 0.152693
465 1 0.600559 0.0999922 0.101733
466 1 0.650413 0.147197 0.104064
467 1 0.652574 0.0988302 0.153397
468 1 0.597744 0.148974 0.151437
469 1 0.700908 0.100223 0.100772
470 1 0.751302 0.15089 0.103112
471 1 0.751045 0.10029 0.151065
472 1 0.698918 0.150212 0.152169
473 1 0.803391 0.0973203 0.101053
474 1 0.850023 0.148527 0.100433
475 1 0.849576 0.0999301 0.150469
476 1 0.800793 0.146984 0.149717
477 1 0.903331 0.0953797 0.101425
478 1 0.95218 0.147532 0.0978679
479 1 0.94969 0.101754 0.149754
480 1 0.899509 0.150903 0.148409
481 1 0.00172139 0.1954 0.0977902
482 1 0.0535949 0.248504 0.100353
483 1 0.0523841 0.198624 0.149744
484 1 0.00158478 0.247273 0.148002
485 1 0.103179 0.198161 0.100258
486 1 0.149016 0.248882 0.101404
487 1 0.153199 0.200696 0.151223
488 1 0.102296 0.249943 0.151163
489 1 0.201879 0.199954 0.102854
490 1 0.247471 0.251037 0.0995973
491 1 0.251973 0.20163 0.15256
492 1 0.198611 0.254042 0.150311
493 1 0.299509 0.199111 0.0989802
494 1 0.3531 0.249685 0.101739
495 1 0.343236 0.20018 0.151593
496 1 0.304402 0.255535 0.150361
497 1 0.39488 0.19931 0.103561
498 1 0.448043 0.249472 0.102844
499 1 0.448328 0.200713 0.15544
500 1 0.393603 0.253149 0.15395
501 1 0.500218 0.198657 0.104527
502 1 0.549505 0.246728 0.103669
503 1 0.552269 0.199529 0.152769
504 1 0.501731 0.24871 0.15146
505 1 0.600773 0.201373 0.100094
506 1 0.65218 0.248397 0.0992625
507 1 0.650465 0.199691 0.151859
508 1 0.601246 0.247741 0.150166
509 1 0.701457 0.199791 0.0988019
510 1 0.752223 0.251161 0.0973036
511 1 0.753075 0.197403 0.149513
512 1 0.7038 0.24444 0.148144
513 1 0.801885 0.194741 0.100679
514 1 0.849559 0.248548 0.0990267
515 1 0.850432 0.201132 0.147452
516 1 0.800983 0.246648 0.149583
517 1 0.896581 0.198769 0.0966328
518 1 0.952554 0.249864 0.0982516
519 1 0.94731 0.197719 0.15014
520 1 0.90151 0.252232 0.15598
521 1 0.00334853 0.300975 0.103358
522 1 0.0483877 0.349408 0.0969686
523 1 0.0535351 0.301556 0.146931
524 1 0.0012393 0.351332 0.148616
525 1 0.102755 0.301148 0.0966152
526 1 0.150122 0.34923 0.0975435
527 1 0.149134 0.299406 0.148957
528 1 0.101102 0.348832 0.148331
529 1 0.196409 0.299929 0.0981755
530 1 0.249959 0.35245 0.100422
531 1 0.2526 0.303287 0.149577
532 1 0.200366 0.34931 0.152274
533 1 0.301174 0.299942 0.0999787
534 1 0.349457 0.350106 0.0984419
535 1 0.349791 0.302852 0.151717
536 1 0.300338 0.351527 0.149219
537 1 0.401586 0.298895 0.099775
538 1 0.450934 0.346828 0.0987299
539 1 0.452449 0.298257 0.147191
540 1 0.399721 0.34739 0.148347
541 1 0.502454 0.298625 0.101979
542 1 0.549812 0.353512 0.100481
543 1 0.549662 0.299109 0.151555
544 1 0.501587 0.35054 0.151125
545 1 0.599511 0.30033 0.101099
546 1 0.649472 0.348674 0.0968523
547 1 0.653076 0.296615 0.153491
548 1 0.600418 0.347857 0.149543
549 1 0.701739 0.296203 0.0990054
550 1 0.750791 0.345219 0.096868
551 1 0.745835 0.301226 0.148916
552 1 0.697862 0.352523 0.14991
553 1 0.803234 0.300821 0.0954709
554 1 0.852378 0.35161 0.0988401
555 1 0.848014 0.296825 0.151849
556 1 0.799238 0.348786 0.149038
557 1 0.900124 0.299193 0.0932579
558 1 0.952305 0.348557 0.0962203
559 1 0.953042 0.298577 0.149713
560 1 0.900844 0.343772 0.150795
561 1 1.00257 0.396555 0.0962311
562 1 0.0475011 0.447574 0.100386
563 1 0.0499218 0.399914 0.148708
564 1 0.00123822 0.449173 0.150126
565 1 0.100442 0.400665 0.0966161
566 1 0.149429 0.449634 0.0985851
567 1 0.151744 0.400276 0.148994
568 1 0.104977 0.446231 0.150226
569 1 0.199094 0.401309 0.100426
570 1 0.251568 0.452159 0.102515
571 1 0.249865 0.399648 0.151288
572 1 0.202728 0.452918 0.148572
573 1 0.301492 0.403754 0.101523
574 1 0.351409 0.451767 0.102887
575 1 0.347073 0.401896 0.150762
576 1 0.298982 0.453954 0.152866
577 1 0.398824 0.401628 0.105381
578 1 0.451409 0.45014 0.101829
579 1 0.453012 0.401986 0.151883
580 1 0.399762 0.450364 0.151277
581 1 0.501492 0.400152 0.100752
582 1 0.549577 0.449726 0.103172
583 1 0.550688 0.400796 0.151476
584 1 0.500444 0.451697 0.150929
585 1 0.599946 0.399855 0.100388
586 1 0.648817 0.449483 0.101071
587 1 0.649191 0.398786 0.152736
588 1 0.597651 0.44896 0.155224
589 1 0.700287 0.398886 0.0969274
590 1 0.748029 0.450543 0.0982921
591 1 0.750545 0.398418 0.151577
592 1 0.700906 0.445167 0.147197
593 1 0.798626 0.399305 0.0980115
594 1 0.850549 0.447963 0.0984062
595 1 0.848812 0.398335 0.148982
596 1 0.79816 0.447968 0.146911
597 1 0.905135 0.399674 0.0984313
598 1 0.953461 0.448202 0.10052
599 1 0.950332 0.394369 0.147899
600 1 0.899022 0.444736 0.148863
601 1 0.000594778 0.498804 0.0992846
602 1 0.0477747 0.549584 0.100279
603 1 0.0521591 0.501174 0.152677
604 1 1.0017 0.549889 0.149046
605 1 0.0988299 0.49739 0.102427
606 1 0.146562 0.547361 0.0990959
607 1 0.150976 0.499968 0.149773
608 1 0.0982213 0.54837 0.148976
609 1 0.200198 0.49909 0.0986577
610 1 0.244022 0.550915 0.0976408
611 1 0.251604 0.505113 0.146314
612 1 0.198694 0.549164 0.149837
613 1 0.303987 0.500485 0.10654
614 1 0.348745 0.550019 0.103116
615 1 0.350738 0.499949 0.155506
616 1 0.303781 0.554289 0.153521
617 1 0.400263 0.499852 0.105216
618 1 0.450629 0.550694 0.101496
619 1 0.452317 0.499055 0.152501
620 1 0.401945 0.553388 0.148744
621 1 0.498841 0.499524 0.101171
622 1 0.547092 0.554246 0.100816
623 1 0.548971 0.50393 0.150469
624 1 0.497687 0.551031 0.152566
625 1 0.596587 0.503791 0.101784
626 1 0.649873 0.545936 0.100138
627 1 0.646079 0.50064 0.15109
628 1 0.600246 0.55146 0.152007
629 1 0.695953 0.496712 0.102235
630 1 0.748908 0.545989 0.102446
631 1 0.75 0.497103 0.150516
632 1 0.69645 0.549993 0.151443
633 1 0.798595 0.498685 0.099665
634 1 0.852526 0.548512 0.0996036
635 1 0.851852 0.493778 0.145509
636 1 0.800112 0.547373 0.150492
637 1 0.902727 0.496192 0.101306
638 1 0.949587 0.546538 0.0962848
639 1 0.950388 0.50009 0.147771
640 1 0.899776 0.549362 0.150008
641 1 0.997867 0.597641 0.100553
642 1 0.0483633 0.647036 0.10153
643 1 0.046774 0.599387 0.14965
644 1 0.996565 0.650237 0.153155
645 1 0.0962134 0.599165 0.0984658
646 1 0.150671 0.654245 0.0989554
647 1 0.14631 0.599766 0.149384
648 1 0.0987539 0.650004 0.149835
649 1 0.197595 0.599324 0.101457
650 1 0.24904 0.653597 0.0996618
651 1 0.245977 0.602011 0.148622
652 1 0.199809 0.652321 0.147224
653 1 0.297367 0.600979 0.102698
654 1 0.347705 0.654726 0.0983137
655 1 0.351041 0.60131 0.148354
656 1 0.302096 0.65324 0.147551
657 1 0.40186 0.604523 0.102389
658 1 0.450835 0.656604 0.10171
659 1 0.448785 0.603409 0.148296
660 1 0.399979 0.656377 0.150214
661 1 0.49848 0.603052 0.102374
662 1 0.552066 0.651223 0.0970882
663 1 0.55077 0.604887 0.148747
664 1 0.502887 0.654266 0.152234
665 1 0.600071 0.602629 0.100336
666 1 0.650344 0.650868 0.0975928
667 1 0.64925 0.599962 0.148365
668 1 0.601781 0.653911 0.149169
669 1 0.699552 0.598335 0.10049
670 1 0.751822 0.647913 0.0987282
671 1 0.751087 0.601184 0.149999
672 1 0.701327 0.64739 0.148263
673 1 0.799405 0.598502 0.101436
674 1 0.850124 0.650049 0.100261
675 1 0.849754 0.598843 0.149069
676 1 0.797946 0.64984 0.151202
677 1 0.899007 0.598969 0.100721
678 1 0.951639 0.649608 0.0988645
679 1 0.948939 0.600782 0.14858
680 1 0.896193 0.647696 0.151679
681 1 0.00120635 0.696317 0.0994641
682 1 0.0483261 0.748678 0.0996238
683 1 0.0473655 0.700767 0.149914
684 1 0.998656 0.748753 0.151123
685 1 0.0950888 0.698982 0.102618
686 1 0.15269 0.749292 0.0987979
687 1 0.149098 0.701246 0.149317
688 1 0.101949 0.751178 0.150206
689 1 0.199412 0.701311 0.0994077
690 1 0.247503 0.750707 0.0994868
691 1 0.254603 0.700645 0.149922
692 1 0.200044 0.750974 0.147096
693 1 0.298379 0.704902 0.100458
694 1 0.352351 0.755403 0.0962364
695 1 0.345844 0.704702 0.150516
696 1 0.300446 0.753479 0.14653
697 1 0.400263 0.706201 0.100776
698 1 0.452461 0.749219 0.0983262
699 1 0.450808 0.70278 0.14868
700 1 0.398485 0.751944 0.14932
701 1 0.502256 0.70295 0.0996522
702 1 0.55074 0.749812 0.0991317
703 1 0.552004 0.699654 0.151267
704 1 0.498986 0.752479 0.148823
705 1 0.599948 0.701665 0.0966939
706 1 0.651412 0.747818 0.100082
707 1 0.654648 0.702627 0.14878
708 1 0.603644 0.750801 0.148781
709 1 0.699565 0.697461 0.0993491
710 1 0.751862 0.753193 0.0996217
711 1 0.747004 0.699121 0.148861
712 1 0.701826 0.751478 0.1512
713 1 0.803159 0.698873 0.103889
714 1 0.850064 0.747227 0.0994013
715 1 0.851542 0.699259 0.151817
716 1 0.804939 0.747342 0.148947
717 1 0.901564 0.698788 0.0981114
718 1 0.949744 0.74828 0.0995167
719 1 0.946715 0.697008 0.152482
720 1 0.897327 0.748051 0.149422
721 1 0.999646 0.800839 0.097436
722 1 0.0543832 0.849715 0.100154
723 1 0.0465241 0.796928 0.149055
724 1 -0.00033681 0.849184 0.149551
725 1 0.0998109 0.796068 0.101479
726 1 0.149845 0.847712 0.100738
727 1 0.151692 0.800191 0.146418
728 1 0.102538 0.848908 0.151927
729 1 0.199755 0.802433 0.0987898
730 1 0.250367 0.851787 0.101274
731 1 0.248614 0.798069 0.146682
732 1 0.199676 0.852624 0.147796
733 1 0.298986 0.80281 0.0971533
734 1 0.349946 0.852408 0.100311
735 1 0.349199 0.802009 0.149768
736 1 0.300403 0.850654 0.14976
737 1 0.400435 0.801616 0.100142
738 1 0.454731 0.850699 0.0955939
739 1 0.450338 0.802162 0.151355
740 1 0.399267 0.850251 0.151114
741 1 0.500244 0.798765 0.101508
742 1 0.546688 0.849141 0.100996
743 1 0.550581 0.799192 0.149168
744 1 0.500467 0.847262 0.147795
745 1 0.599015 0.800052 0.0988481
746 1 0.650166 0.845505 0.102555
747 1 0.653414 0.799793 0.154041
748 1 0.601751 0.848156 0.151887
749 1 0.701214 0.79873 0.102112
750 1 0.752205 0.849416 0.0993003
751 1 0.754397 0.801335 0.150989
752 1 0.70422 0.85258 0.148026
753 1 0.804779 0.800299 0.0996816
754 1 0.852288 0.8494 0.0992705
755 1 0.852705 0.798874 0.151565
756 1 0.801798 0.848929 0.148939
757 1 0.89946 0.797335 0.0982549
758 1 0.949302 0.853563 0.103031
759 1 0.946632 0.799261 0.14799
760 1 0.903131 0.852897 0.151423
761 1 0.00500212 0.897311 0.101369
762 1 0.0527235 0.948948 0.0995395
763 1 0.0517079 0.899781 0.150021
764 1 0.0014168 0.948867 0.149455
765 1 0.102769 0.898587 0.100521
766 1 0.153992 0.949983 0.0995909
767 1 0.150041 0.899742 0.151036
768 1 0.100788 0.949266 0.15131
769 1 0.198869 0.901281 0.098661
770 1 0.252074 0.948571 0.100321
771 1 0.249973 0.901866 0.15065
772 1 0.201023 0.951951 0.150512
773 1 0.299283 0.898788 0.101782
774 1 0.346511 0.948838 0.0982519
775 1 0.35156 0.900683 0.152305
776 1 0.299382 0.952176 0.149717
777 1 0.399439 0.903213 0.0966659
778 1 0.451956 0.951172 0.0990567
779 1 0.448935 0.900545 0.144159
780 1 0.40197 0.949748 0.151184
781 1 0.501547 0.901091 0.0975294
782 1 0.549655 0.951203 0.10106
783 1 0.548698 0.901702 0.148659
784 1 0.498943 0.949883 0.149583
785 1 0.598155 0.899856 0.100511
786 1 0.652665 0.953001 0.103393
787 1 0.652805 0.901911 0.148926
788 1 0.599694 0.952581 0.150454
789 1 0.700585 0.904991 0.0995218
790 1 0.75146 0.949437 0.0989518
791 1 0.752271 0.897457 0.148241
792 1 0.702022 0.953494 0.151975
793 1 0.801054 0.897132 0.0998947
794 1 0.851198 0.950407 0.0998004
795 1 0.851261 0.898648 0.149695
796 1 0.799493 0.94756 0.150569
797 1 0.899921 0.901912 0.0996692
798 1 0.951 0.947322 0.102596
799 1 0.948991 0.901543 0.149421
800 1 0.901799 0.949486 0.150099
801 1 1.00058 0.997167 0.202968
802 1 0.0514197 0.0501156 0.197633
803 1 0.0508814 0.99734 0.246868
804 1 1.0015 0.0498248 0.249146
805 1 0.101854 -0.000458817 0.198806
806 1 0.150528 0.0507771 0.200935
807 1 0.150496 0.999899 0.248883
808 1 0.101885 0.0493691 0.248668
809 1 0.199152 0.999817 0.201427
810 1 0.251607 0.0487304 0.200788
811 1 0.250301 0.000582568 0.248818
812 1 0.202498 0.049289 0.249093
813 1 0.302708 0.996999 0.19898
814 1 0.347835 0.0484154 0.198145
815 1 0.34991 0.00234289 0.249891
816 1 0.299173 0.0503866 0.248484
817 1 0.3994 -0.000580224 0.202208
818 1 0.448457 0.0511364 0.203229
819 1 0.450281 0.995853 0.250457
820 1 0.400286 0.0499058 0.252237
821 1 0.498559 0.999324 0.203879
822 1 0.548853 0.04752 0.199096
823 1 0.549477 0.998365 0.249861
824 1 0.499247 0.0502881 0.251209
825 1 0.598997 -0.000452146 0.199325
826 1 0.651811 0.0469487 0.200985
827 1 0.654455 0.998271 0.24922
828 1 0.59966 0.0469577 0.251391
829 1 0.699727 -0.00215694 0.199916
830 1 0.75013 0.049013 0.200945
831 1 0.751762 0.00297843 0.249317
832 1 0.697486 0.0489637 0.250299
833 1 0.799435 0.00180486 0.20341
834 1 0.84847 0.0516422 0.200099
835 1 0.851524 0.000658258 0.248851
836 1 0.799743 0.0526365 0.249881
837 1 0.902452 1.00013 0.19953
838 1 0.949902 0.0511131 0.199662
839 1 0.949645 1.00144 0.252407
840 1 0.902704 0.0541614 0.248386
841 1 1.00148 0.100099 0.199194
842 1 0.0501662 0.146499 0.197773
843 1 0.0493568 0.0975361 0.250623
844 1 0.000150224 0.146988 0.249356
845 1 0.101792 0.0987798 0.196167
846 1 0.153171 0.151715 0.198933
847 1 0.152804 0.101193 0.24845
848 1 0.101337 0.146989 0.247885
849 1 0.202134 0.101189 0.198524
850 1 0.254735 0.151631 0.202854
851 1 0.250028 0.102452 0.24915
852 1 0.202839 0.150691 0.252649
853 1 0.300249 0.0980526 0.198966
854 1 0.347355 0.15005 0.202019
855 1 0.346302 0.0983176 0.24882
856 1 0.303316 0.14983 0.252561
857 1 0.395628 0.0989994 0.201946
858 1 0.44766 0.152087 0.200648
859 1 0.45103 0.104088 0.253011
860 1 0.399736 0.148419 0.25227
861 1 0.500427 0.100957 0.200493
862 1 0.548989 0.150767 0.201269
863 1 0.545524 0.0971998 0.250811
864 1 0.499419 0.148546 0.25191
865 1 0.598635 0.0927806 0.204581
866 1 0.648459 0.147921 0.199149
867 1 0.649296 0.0968589 0.248983
868 1 0.598218 0.148172 0.248524
869 1 0.701888 0.0979256 0.19806
870 1 0.75021 0.153175 0.200292
871 1 0.747806 0.101809 0.248531
872 1 0.698223 0.147042 0.246987
873 1 0.801844 0.101752 0.201895
874 1 0.851678 0.152541 0.197875
875 1 0.849162 0.1048 0.247486
876 1 0.797721 0.151766 0.249919
877 1 0.896578 0.0987318 0.197559
878 1 0.949099 0.150488 0.196125
879 1 0.950157 0.101355 0.249626
880 1 0.901677 0.149114 0.248924
881 1 0.000170029 0.200858 0.198154
882 1 0.0502688 0.251276 0.196438
883 1 0.0492886 0.203575 0.246161
884 1 0.00210024 0.252755 0.24867
885 1 0.102965 0.201003 0.198302
886 1 0.153406 0.247283 0.202701
887 1 0.153433 0.198959 0.248478
888 1 0.100748 0.251518 0.248587
889 1 0.202663 0.199375 0.200163
890 1 0.247457 0.251796 0.199927