ITEM: TIMESTEP
25200
ITEM: NUMBER OF ATOMS
4000
ITEM: BOX BOUNDS pp pp pp
0.0000000000000000e+00 1.6795961913825074e+01
0.0000000000000000e+00 1.6795961913825074e+01
0.0000000000000000e+00 1.6795961913825074e+01
ITEM: ATOMS id type xs ys zs
1 1 0.987268 0.992541 0.00331025
2 1 0.0295064 0.0441873 0.00964205
3 1 0.0336158 0.998402 0.0482194
4 1 0.983834 0.0440341 0.0607118
5 1 0.0733489 0.984191 0.999251
6 1 0.148005 0.0309368 0.995352
7 1 0.125269 0.997408 0.0480897
8 1 0.0786996 0.0230698 0.0818577
9 1 0.199096 0.989754 0.981945
10 1 0.232114 0.0419153 0.974368
11 1 0.243588 0.983267 0.0398135
12 1 0.194985 0.0339808 0.03553
13 1 0.271231 0.992473 0.984451
14 1 0.313224 0.0511305 0.991805
15 1 0.373254 0.00109198 0.0905609
16 1 0.259366 0.043677 0.0298151
17 1 0.377045 0.997489 0.0305689
18 1 0.444745 0.0770064 0.00332239
19 1 0.434205 0.0217401 0.0546521
20 1 0.374053 0.0623515 0.0303812
21 1 0.488655 0.969991 0.0727946
22 1 0.480394 0.0261194 0.00933723
23 1 0.482746 0.912199 0.0895001
24 1 0.511329 0.0322419 0.068821
25 1 0.516681 0.966369 0.00654754
26 1 0.673163 0.0732128 0.0127629
27 1 0.6231 0.982739 0.0486028
28 1 0.621001 0.0231166 -0.000134864
29 1 0.775375 0.992147 0.0245715
30 1 0.726239 0.0428954 0.0322509
31 1 0.733635 0.989123 0.0872155
32 1 0.706147 0.0757139 0.0819095
33 1 0.803097 0.948793 0.978213
34 1 0.85461 0.0533815 0.00389337
35 1 0.849889 0.978834 0.0416237
36 1 0.790255 0.052484 0.0200786
37 1 0.898765 1.00009 0.00395512
38 1 0.942978 0.054191 0.0032638
39 1 0.932502 0.992898 0.0537777
40 1 0.881323 0.0380502 0.0628068
41 1 0.990705 0.0921906 0.0121697
42 1 0.0411265 0.142867 0.00760387
43 1 0.0393998 0.0764497 0.0712231
44 1 0.986538 0.144773 0.0611634
45 1 0.0853886 0.0865316 0.0276349
46 1 0.135031 0.137598 0.98074
47 1 0.140715 0.0734829 0.0556035
48 1 0.0964647 0.154233 0.0568303
49 1 0.179005 0.0848376 0.00176457
50 1 0.22774 0.147365 0.988696
51 1 0.227864 0.0970733 0.0389256
52 1 0.169681 0.132695 0.0374577
53 1 0.287963 0.10804 0.974715
54 1 0.331831 0.153087 0.00176265
55 1 0.321254 0.101544 0.0424823
56 1 0.27437 0.152938 0.0304959
57 1 0.389838 0.114557 0.00553081
58 1 0.465902 0.18397 0.978393
59 1 0.42525 0.0897492 0.0645459
60 1 0.384392 0.156396 0.0484483
61 1 0.455471 0.137532 0.0320856
62 1 0.538098 0.123694 0.00272792
63 1 0.56611 0.00709193 0.0266314
64 1 0.533389 0.154891 0.0662842
65 1 0.574677 0.0548645 0.95453
66 1 0.64205 0.143499 0.0192496
67 1 0.558605 0.0895972 0.055247
68 1 0.603383 0.138775 0.0870065
69 1 0.659346 0.116789 0.0848095
70 1 0.733873 0.171333 0.999825
71 1 0.763416 0.100049 0.0484772
72 1 0.617223 0.207367 0.0396931
73 1 0.769014 0.0836617 0.969406
74 1 0.847096 0.147475 0.0135778
75 1 0.834609 0.0895998 0.0499045
76 1 0.800152 0.153036 0.0521606
77 1 0.899014 0.10138 0.0132193
78 1 0.946433 0.147414 0.003774
79 1 0.941499 0.0974675 0.060498
80 1 0.894652 0.143238 0.0581325
81 1 0.999055 0.200111 0.0140481
82 1 0.0350326 0.257264 0.996781
83 1 0.0414931 0.190574 0.0709459
84 1 0.997289 0.239857 0.058259
85 1 0.0814885 0.197343 0.99921
86 1 0.134559 0.251432 0.00390521
87 1 0.142323 0.194775 0.0353219
88 1 0.0825187 0.24464 0.0485754
89 1 0.191267 0.217148 0.988933
90 1 0.230065 0.265592 0.980767
91 1 0.212123 0.190999 0.0419111
92 1 0.192782 0.258954 0.0433741
93 1 0.289762 0.199759 0.979952
94 1 0.331928 0.259739 0.00584435
95 1 0.327303 0.193772 0.0508263
96 1 0.258015 0.237379 0.0356499
97 1 0.381595 0.219919 0.0198093
98 1 0.436844 0.275143 0.00563023
99 1 0.435838 0.204823 0.0417596
100 1 0.383891 0.266287 0.0611977
101 1 0.497209 0.198952 0.0331048
102 1 0.558914 0.219747 0.00247245
103 1 0.541275 0.216945 0.0740665
104 1 0.490853 0.264355 0.0606249
105 1 0.581156 0.16244 0.0251619
106 1 0.641559 0.257338 0.0040738
107 1 0.707311 0.255616 0.0686496
108 1 0.589906 0.26539 0.0658779
109 1 0.687175 0.215836 0.0149738
110 1 0.736963 0.25309 0.00418139
111 1 0.741091 0.195328 0.0675111
112 1 0.755789 0.246818 0.108515
113 1 0.787565 0.20074 0.0178625
114 1 0.844187 0.246663 0.00641234
115 1 0.848496 0.201431 0.0628465
116 1 0.804892 0.252129 0.0583409
117 1 0.895665 0.201324 0.0185583
118 1 0.942851 0.245594 0.0174275
119 1 0.94181 0.19154 0.0547705
120 1 0.894801 0.245724 0.0696632
121 1 0.99012 0.296823 0.0300394
122 1 0.0419264 0.347019 0.00613524
123 1 0.0460752 0.295829 0.0643135
124 1 0.993811 0.357892 0.0491317
125 1 0.0862918 0.303061 0.00597116
126 1 0.135145 0.350169 0.997395
127 1 0.13908 0.303066 0.0456498
128 1 0.0955739 0.350201 0.048915
129 1 0.180393 0.298575 0.997232
130 1 0.243442 0.352065 0.997006
131 1 0.244121 0.304327 0.052993
132 1 0.183619 0.346117 0.041866
133 1 0.280444 0.297607 0.00285302
134 1 0.344318 0.364164 0.00694461
135 1 0.317332 0.296587 0.0515379
136 1 0.283933 0.359492 0.0567623
137 1 0.381176 0.302803 0.00279084
138 1 0.44438 0.340028 0.996408
139 1 0.430823 0.321511 0.0589238
140 1 0.36391 0.335669 0.060428
141 1 0.507999 0.298121 0.00840023
142 1 0.536133 0.355147 0.00186841
143 1 0.549733 0.310251 0.0573171
144 1 0.491261 0.333336 0.061597
145 1 0.588399 0.298511 1.00001
146 1 0.640037 0.348729 0.0106208
147 1 0.642925 0.313435 0.0598566
148 1 0.588042 0.354347 0.0469597
149 1 0.694867 0.303878 0.0105476
150 1 0.747828 0.347675 0.00658793
151 1 0.751136 0.302697 0.0513198
152 1 0.707302 0.347093 0.0581914
153 1 0.795284 0.299451 0.00529831
154 1 0.843631 0.353612 0.0075604
155 1 0.848546 0.302793 0.0482658
156 1 0.799109 0.34941 0.0575465
157 1 0.897913 0.299629 0.00538736
158 1 0.946684 0.33316 0.0021542
159 1 0.934697 0.300127 0.0569776
160 1 0.889529 0.350131 0.0580227
161 1 0.992627 0.396845 0.996716
162 1 0.0542105 0.446585 0.992283
163 1 0.0439576 0.400373 0.0536165
164 1 0.994039 0.456172 0.0480246
165 1 0.083135 0.396627 0.998519
166 1 0.133447 0.446136 0.00202395
167 1 0.147359 0.399115 0.0468189
168 1 0.0988107 0.445302 0.0547909
169 1 0.181766 0.399624 0.991658
170 1 0.227012 0.443377 0.000791856
171 1 0.2283 0.400327 0.0468868
172 1 0.190487 0.448606 0.0651161
173 1 0.280928 0.40117 0.99736
174 1 0.330744 0.437069 0.992612
175 1 0.342704 0.404 0.0612846
176 1 0.288484 0.442476 0.0574769
177 1 0.401115 0.397951 0.00211075
178 1 0.448388 0.440723 0.999712
179 1 0.434439 0.381353 0.0668189
180 1 0.386951 0.456932 0.0539595
181 1 0.483058 0.384713 0.0104697
182 1 0.528753 0.431908 0.0068341
183 1 0.528411 0.393665 0.0614839
184 1 0.480011 0.432932 0.0486039
185 1 0.584312 0.401909 0.00812952
186 1 0.633499 0.440701 0.00355053
187 1 0.639939 0.393444 0.0524545
188 1 0.591616 0.44397 0.0603754
189 1 0.696655 0.397508 0.0217454
190 1 0.740017 0.447012 0.00695757
191 1 0.754318 0.396517 0.0501082
192 1 0.680259 0.44481 0.0611464
193 1 0.795395 0.392959 0.0111596
194 1 0.842843 0.444568 0.999681
195 1 0.845248 0.396061 0.057344
196 1 0.796356 0.450164 0.0411654
197 1 0.890511 0.402567 0.000829607
198 1 0.945159 0.451138 0.00373731
199 1 0.93697 0.399386 0.0442936
200 1 0.897731 0.449343 0.0481516
201 1 0.997316 0.493016 0.996376
202 1 0.0496443 0.548012 0.000601839
203 1 0.0481549 0.491436 0.0500678
204 1 0.990673 0.546702 0.0486709
205 1 0.0980276 0.502674 0.00749887
206 1 0.143508 0.547083 0.996014
207 1 0.144799 0.501162 0.0613838
208 1 0.0945081 0.540164 0.0629802
209 1 0.182086 0.491264 0.00276197
210 1 0.236383 0.537366 0.997504
211 1 0.235646 0.493133 0.0481802
212 1 0.194391 0.54838 0.059177
213 1 0.288012 0.497679 0.00144216
214 1 0.333462 0.5415 0.00307231
215 1 0.333514 0.490323 0.0496181
216 1 0.290279 0.540716 0.0475732
217 1 0.392311 0.498618 0.995776
218 1 0.447224 0.542417 0.00503937
219 1 0.450717 0.490488 0.0593395
220 1 0.386875 0.538208 0.04665
221 1 0.485534 0.496247 0.999718
222 1 0.53363 0.541492 0.000801629
223 1 0.523554 0.477729 0.0505388
224 1 0.495106 0.546324 0.0495878
225 1 0.576166 0.474416 0.00154775
226 1 0.647451 0.528672 0.989427
227 1 0.637623 0.490417 0.0457254
228 1 0.594625 0.550479 0.0783765
229 1 0.697576 0.495724 0.0102568
230 1 0.736423 0.541421 0.00365059
231 1 0.745152 0.498642 0.0507498
232 1 0.677193 0.54044 0.0500895
233 1 0.790947 0.488546 0.99476
234 1 0.835362 0.545546 0.994705
235 1 0.841846 0.496514 0.0416613
236 1 0.787553 0.537113 0.0497757
237 1 0.895625 0.508615 0.00729111
238 1 0.948414 0.549582 0.00212341
239 1 0.94643 0.503695 0.0473444
240 1 0.893034 0.541669 0.0564193
241 1 0.985417 0.59619 0.0090625
242 1 0.0338129 0.641574 -5.89604e-05
243 1 0.0320009 0.595153 0.0527024
244 1 0.984001 0.643377 0.0587089
245 1 0.0885598 0.598927 0.998041
246 1 0.143797 0.647237 0.996198
247 1 0.131901 0.589105 0.0523078
248 1 0.0859578 0.644258 0.0398876
249 1 0.193601 0.626594 0.0306276
250 1 0.249686 0.638215 0.995842
251 1 0.243804 0.592665 0.0433287
252 1 0.231532 0.661953 0.0607006
253 1 0.288546 0.58926 0.990105
254 1 0.336644 0.636155 0.995006
255 1 0.332725 0.591362 0.0424409
256 1 0.285678 0.647245 0.0467398
257 1 0.396175 0.588754 0.00347035
258 1 0.436869 0.647436 0.00584161
259 1 0.438564 0.587612 0.0470451
260 1 0.378066 0.63446 0.0450683
261 1 0.490244 0.590293 0.00663084
262 1 0.536785 0.649056 0.0103824
263 1 0.54814 0.593296 0.0617772
264 1 0.484063 0.640722 0.0513868
265 1 0.606212 0.58096 0.0116312
266 1 0.650725 0.642786 0.00503839
267 1 0.643752 0.592149 0.0599533
268 1 0.593284 0.634007 0.0428174
269 1 0.68919 0.580382 0.00150623
270 1 0.722351 0.635375 0.000389457
271 1 0.740145 0.595098 0.0589428
272 1 0.690894 0.634644 0.0507379
273 1 0.785503 0.588452 0.00262608
274 1 0.83794 0.63538 0.0123607
275 1 0.832575 0.577545 0.0439788
276 1 0.790886 0.642772 0.0509965
277 1 0.89382 0.587631 0.00506595
278 1 0.938171 0.640459 0.000761737
279 1 0.941922 0.590699 0.051796
280 1 0.888061 0.638785 0.0517193
281 1 0.982349 0.684883 0.0102715
282 1 0.0304182 0.73748 0.994917
283 1 0.0443429 0.696671 0.0467418
284 1 0.985592 0.737695 0.0429926
285 1 0.100406 0.695093 0.997872
286 1 0.145779 0.739882 0.00668735
287 1 0.142105 0.684513 0.0501709
288 1 0.105106 0.734209 0.0564111
289 1 0.19065 0.686993 0.0040372
290 1 0.245777 0.728095 0.0171141
291 1 0.239113 0.726239 0.0839466
292 1 0.191498 0.735252 0.0462923
293 1 0.294698 0.680726 0.0011287
294 1 0.33527 0.727279 0.99872
295 1 0.341057 0.682787 0.0435985
296 1 0.29714 0.719098 0.0556291
297 1 0.388193 0.681168 0.995156
298 1 0.424464 0.72989 0.995726
299 1 0.436457 0.691602 0.0536501
300 1 0.383323 0.740961 0.0422864
301 1 0.492322 0.696067 0.0118061
302 1 0.53826 0.724529 0.980596
303 1 0.549352 0.698074 0.0496211
304 1 0.464364 0.754864 0.0462398
305 1 0.588099 0.69528 0.992759
306 1 0.644356 0.722608 0.99434
307 1 0.640919 0.692 0.0491756
308 1 0.592436 0.74616 0.0483854
309 1 0.701162 0.694362 0.989443
310 1 0.742739 0.755722 0.00322631
311 1 0.736233 0.687026 0.0392432
312 1 0.693878 0.740305 0.0535034
313 1 0.788576 0.686311 0.997336
314 1 0.841016 0.731143 0.999004
315 1 0.848014 0.691552 0.0551778
316 1 0.7881 0.725399 0.0446452
317 1 0.891087 0.697203 0.012774
318 1 0.938211 0.731883 0.998459
319 1 0.935651 0.690434 0.0598643
320 1 0.889818 0.746896 0.0659006
321 1 0.98726 0.792751 0.998803
322 1 0.0434949 0.841313 0.0143485
323 1 0.0524329 0.782488 0.0520871
324 1 0.98442 0.830196 0.0606783
325 1 0.0961127 0.789306 0.00297665
326 1 0.155259 0.828805 0.00970813
327 1 0.148505 0.785898 0.0610915
328 1 0.0903041 0.8337 0.0550811
329 1 0.193357 0.782189 0.999969
330 1 0.232723 0.854308 0.99173
331 1 0.249474 0.787568 0.0558029
332 1 0.198417 0.830806 0.0519797
333 1 0.288977 0.771169 0.0123359
334 1 0.352003 0.799496 0.00366657
335 1 0.349371 0.786184 0.0663097
336 1 0.274262 0.843922 0.0414071
337 1 0.418807 0.792789 0.999823
338 1 0.470204 0.848365 0.00170329
339 1 0.416147 0.804947 0.0703552
340 1 0.378599 0.855917 0.0829514
341 1 0.484647 0.787065 0.982608
342 1 0.537985 0.835119 0.993001
343 1 0.525822 0.76931 0.026631
344 1 0.487928 0.816787 0.0531223
345 1 0.595959 0.790269 0.00263151
346 1 0.642485 0.861515 0.0181466
347 1 0.635297 0.801597 0.0636604
348 1 0.557324 0.796828 0.0701503
349 1 0.675753 0.779438 0.0108803
350 1 0.723086 0.820212 0.986346
351 1 0.73687 0.796826 0.0521762
352 1 0.68637 0.830725 0.0536275
353 1 0.80527 0.779955 0.994479
354 1 0.845762 0.824418 0.00268177
355 1 0.842613 0.779958 0.0449984
356 1 0.793173 0.822144 0.0488448
357 1 0.885983 0.778642 0.00624576
358 1 0.937698 0.830463 0.00748861
359 1 0.942567 0.778563 0.054377
360 1 0.887818 0.824976 0.0535407
361 1 0.986261 0.866628 0.997702
362 1 0.020923 0.940209 0.0113551
363 1 0.029494 0.892454 0.0623019
364 1 0.975045 0.943142 0.0532445
365 1 0.0801547 0.907331 0.0120529
366 1 0.137639 0.950837 -4.66789e-05
367 1 0.141365 0.901977 0.0500694
368 1 0.0803418 0.949485 0.0570672
369 1 0.180637 0.895008 0.00548247
370 1 0.23792 0.928981 0.00501967
371 1 0.208485 0.909882 0.0582064
372 1 0.184731 0.967495 0.03606
373 1 0.284169 0.895098 0.00823575
374 1 0.348013 0.917029 0.999724
375 1 0.330928 0.876663 0.0477419
376 1 0.317693 0.971026 0.0218794
377 1 0.399598 0.863374 0.0203213
378 1 0.410925 0.940034 0.00200513
379 1 0.444879 0.862963 0.0628907
380 1 0.363272 0.926809 0.0624578
381 1 0.509352 0.901344 0.987985
382 1 0.469343 0.932855 0.0278686
383 1 0.531442 0.857311 0.061348
384 1 0.459356 0.897573 0.150945
385 1 0.580059 0.8853 0.000688009
386 1 0.687154 0.993045 0.0169083
387 1 0.606015 0.921668 0.0403136
388 1 0.536742 0.916375 0.0460215
389 1 0.686428 0.905464 0.0185738
390 1 0.735977 0.95271 0.980841
391 1 0.7366 0.858244 0.0371768
392 1 0.739825 0.930643 0.0426477
393 1 0.789263 0.889893 0.00424084
394 1 0.847579 0.920745 0.0106
395 1 0.839432 0.875342 0.0483194
396 1 0.801917 0.943323 0.0499675
397 1 0.890668 0.876591 0.010946
398 1 0.94122 0.952239 0.00395434
399 1 0.9465 0.88874 0.0384735
400 1 0.89847 0.937737 0.0558158
401 1 0.981408 0.994501 0.0995044
402 1 0.0350516 0.0349465 0.122524
403 1 0.0337131 0.97909 0.166437
404 1 0.973519 0.0390578 0.15102
405 1 0.10722 0.966847 0.108414
406 1 0.133597 0.0367744 0.119793
407 1 0.1557 0.991149 0.15615
408 1 0.0875906 0.0205457 0.157907
409 1 0.178783 0.00384212 0.0986538
410 1 0.231898 0.0538096 0.0833892
411 1 0.228586 0.98049 0.163384
412 1 0.193976 0.0446646 0.157041
413 1 0.263422 0.99759 0.0999258
414 1 0.308153 0.0461287 0.0887113
415 1 0.327671 0.0158325 0.148583
416 1 0.264663 0.044157 0.136585
417 1 0.410915 0.979427 0.134363
418 1 0.429427 0.0358987 0.118136
419 1 0.456314 0.996314 0.195054
420 1 0.378844 0.0659732 0.133104
421 1 0.47216 0.964197 0.13181
422 1 0.578992 0.00878078 0.128256
423 1 0.587729 0.964287 0.184914
424 1 0.49009 0.0401268 0.136602
425 1 0.560214 0.975872 0.0791903
426 1 0.613264 0.0458362 0.0607377
427 1 0.67276 0.999926 0.143522
428 1 0.539648 0.102716 0.15917
429 1 0.723775 0.06344 0.143913
430 1 0.766764 0.0422246 0.0868002
431 1 0.728733 0.976348 0.161721
432 1 0.656115 0.0616721 0.129682
433 1 0.813697 0.981922 0.100417
434 1 0.826826 0.0417935 0.0974914
435 1 0.847759 0.995985 0.152644
436 1 0.798178 0.0514527 0.156817
437 1 0.878425 0.986859 0.0986832
438 1 0.935673 0.0291704 0.100409
439 1 0.931655 0.992402 0.146751
440 1 0.893739 0.041476 0.149451
441 1 0.985753 0.0859984 0.112395
442 1 0.0520924 0.133439 0.103592
443 1 0.0580545 0.0828417 0.15353
444 1 0.00141364 0.146183 0.134092
445 1 0.0953031 0.0908905 0.0931065
446 1 0.146446 0.145499 0.0911709
447 1 0.144168 0.0834368 0.157073
448 1 0.109123 0.140656 0.138041
449 1 0.181254 0.0851892 0.107576
450 1 0.217856 0.147499 0.0900901
451 1 0.249307 0.107123 0.136796
452 1 0.183917 0.149081 0.146683
453 1 0.278688 0.116138 0.0827135
454 1 0.33118 0.158693 0.0967578
455 1 0.313754 0.0866232 0.139186
456 1 0.284635 0.173969 0.136853
457 1 0.363104 0.103097 0.0787451
458 1 0.462302 0.160932 0.0924071
459 1 0.457979 0.0980391 0.141176
460 1 0.390678 0.149874 0.13129
461 1 0.4968 0.093095 0.0401465
462 1 0.558829 0.154251 0.132296
463 1 0.51048 0.110315 0.102904
464 1 0.491342 0.166093 0.159635
465 1 0.546051 0.0634323 0.110352
466 1 0.642019 0.175384 0.1228
467 1 0.604945 0.0912275 0.14262
468 1 0.605082 0.147542 0.177053
469 1 0.669265 0.027202 0.0780452
470 1 0.708305 0.120139 0.0353774
471 1 0.748283 0.118448 0.164482
472 1 0.670095 0.122861 0.151785
473 1 0.790427 0.104985 0.107129
474 1 0.847239 0.153098 0.107028
475 1 0.839775 0.10512 0.157817
476 1 0.798089 0.157227 0.152383
477 1 0.885293 0.0924415 0.0900289
478 1 0.939831 0.14817 0.0978619
479 1 0.934781 0.0921862 0.149593
480 1 0.899637 0.153612 0.149263
481 1 0.983115 0.196407 0.103076
482 1 0.0478675 0.246061 0.10947
483 1 0.0566083 0.187511 0.148397
484 1 0.991458 0.251387 0.14935
485 1 0.100592 0.204088 0.0994257
486 1 0.141873 0.249072 0.0924667
487 1 0.140825 0.194946 0.150444
488 1 0.0961813 0.257064 0.143929
489 1 0.176758 0.204073 0.0998939
490 1 0.229888 0.254475 0.0975333
491 1 0.222865 0.210587 0.146915
492 1 0.172235 0.249748 0.145132
493 1 0.284865 0.226323 0.0915764
494 1 0.345157 0.269164 0.10957
495 1 0.331516 0.213283 0.150183
496 1 0.276052 0.250613 0.156356
497 1 0.376033 0.206835 0.10191
498 1 0.438619 0.257793 0.108676
499 1 0.428517 0.199994 0.148377
500 1 0.388185 0.250779 0.152012
501 1 0.485145 0.217449 0.106881
502 1 0.534716 0.272855 0.112198
503 1 0.544278 0.217543 0.14318
504 1 0.483342 0.250387 0.160027
505 1 0.59388 0.213035 0.104637
506 1 0.648732 0.237623 0.0790409
507 1 0.657294 0.170283 0.189366
508 1 0.588153 0.262549 0.150672
509 1 0.729423 0.139047 0.107645
510 1 0.671275 0.177918 0.0670471
511 1 0.752561 0.20151 0.150155
512 1 0.703497 0.205738 0.108568
513 1 0.797305 0.19454 0.104367
514 1 0.847614 0.246782 0.106225
515 1 0.85803 0.204992 0.14826
516 1 0.80193 0.246501 0.160049
517 1 0.900125 0.196916 0.105598
518 1 0.947234 0.249275 0.10337
519 1 0.946405 0.201112 0.147856
520 1 0.909257 0.250561 0.148114
521 1 0.994183 0.300021 0.102129
522 1 0.0423944 0.353037 0.0892493
523 1 0.0397902 0.294895 0.153343
524 1 0.990564 0.347582 0.147544
525 1 0.0951579 0.302359 0.0953538
526 1 0.143428 0.349463 0.0937232
527 1 0.135373 0.303446 0.14565
528 1 0.0902686 0.344254 0.138882
529 1 0.186243 0.300936 0.102884
530 1 0.234873 0.355278 0.103684
531 1 0.230484 0.298978 0.152898
532 1 0.179333 0.350277 0.141631
533 1 0.276945 0.308115 0.11084
534 1 0.332065 0.347483 0.114072
535 1 0.331914 0.28873 0.17116
536 1 0.274618 0.344823 0.158488
537 1 0.397666 0.302631 0.110167
538 1 0.435988 0.349654 0.119472
539 1 0.429994 0.299975 0.168357
540 1 0.378804 0.352233 0.155051
541 1 0.481417 0.303596 0.124324
542 1 0.536451 0.360026 0.11324
543 1 0.542766 0.3165 0.167993
544 1 0.481772 0.346994 0.164535
545 1 0.590791 0.32304 0.0971305
546 1 0.648395 0.373372 0.11506
547 1 0.644288 0.283843 0.127912
548 1 0.593652 0.354919 0.152659
549 1 0.705193 0.320258 0.116335
550 1 0.751995 0.356871 0.108646
551 1 0.764047 0.300323 0.148657
552 1 0.69886 0.362649 0.162746
553 1 0.807049 0.306532 0.0965331
554 1 0.842875 0.355522 0.113785
555 1 0.846524 0.30087 0.14439
556 1 0.800166 0.357182 0.15499
557 1 0.896004 0.301399 0.115397
558 1 0.945368 0.349302 0.104159
559 1 0.949519 0.304874 0.148209
560 1 0.899761 0.356367 0.15214
561 1 0.993568 0.399065 0.0940061
562 1 0.0480504 0.44165 0.0991431
563 1 0.0458391 0.390767 0.146402
564 1 0.999753 0.435756 0.145037
565 1 0.08821 0.39573 0.094945
566 1 0.141737 0.440291 0.104511
567 1 0.136153 0.39525 0.142565
568 1 0.0855485 0.444375 0.147721
569 1 0.187733 0.400294 0.105144
570 1 0.240471 0.449454 0.104156
571 1 0.234468 0.388792 0.156366
572 1 0.191027 0.42992 0.160949
573 1 0.287068 0.396935 0.11188
574 1 0.339894 0.463346 0.115193
575 1 0.340916 0.402347 0.150452
576 1 0.297966 0.447097 0.153738
577 1 0.387957 0.393302 0.111225
578 1 0.429334 0.442194 0.10339
579 1 0.436413 0.404959 0.16138
580 1 0.388041 0.453938 0.173241
581 1 0.477004 0.403033 0.11033
582 1 0.531155 0.445365 0.105554
583 1 0.531476 0.403682 0.163048
584 1 0.483079 0.456037 0.16422
585 1 0.588377 0.390964 0.0984495
586 1 0.633795 0.451399 0.100748
587 1 0.655976 0.410333 0.169338
588 1 0.597682 0.423175 0.151457
589 1 0.69625 0.405243 0.112531
590 1 0.744062 0.447407 0.105498
591 1 0.743143 0.402286 0.153627
592 1 0.703221 0.458737 0.15164
593 1 0.796295 0.403306 0.102829
594 1 0.843997 0.452665 0.0870987
595 1 0.845939 0.410131 0.147898
596 1 0.791217 0.440789 0.155322
597 1 0.899313 0.399772 0.0988408
598 1 0.94472 0.444661 0.0971667
599 1 0.944651 0.403302 0.154217
600 1 0.899792 0.448601 0.1574
601 1 0.990131 0.495354 0.0941547
602 1 0.0499165 0.536255 0.108469
603 1 0.0449492 0.486433 0.154905
604 1 0.00124403 0.545117 0.148887
605 1 0.0968678 0.488346 0.10787
606 1 0.142323 0.544733 0.104409
607 1 0.157507 0.494889 0.146797
608 1 0.0976098 0.542791 0.154028
609 1 0.201916 0.496567 0.107516
610 1 0.24178 0.548906 0.101706
611 1 0.246437 0.500553 0.149105
612 1 0.196117 0.54812 0.143949
613 1 0.28659 0.50645 0.103133
614 1 0.341907 0.550457 0.088489
615 1 0.33551 0.506793 0.167938
616 1 0.281392 0.555003 0.150293
617 1 0.389315 0.506223 0.0972165
618 1 0.443216 0.538958 0.0907889
619 1 0.436624 0.496095 0.144574
620 1 0.393951 0.54741 0.153769
621 1 0.494029 0.494973 0.11319
622 1 0.529167 0.546931 0.0986976
623 1 0.54532 0.492847 0.157479
624 1 0.483752 0.545096 0.152115
625 1 0.582555 0.492344 0.100382
626 1 0.652687 0.543805 0.10707
627 1 0.64312 0.496217 0.157522
628 1 0.603169 0.547155 0.145285
629 1 0.690462 0.494606 0.101674
630 1 0.733008 0.538872 0.105784
631 1 0.751297 0.50164 0.150656
632 1 0.692772 0.534386 0.154618
633 1 0.793476 0.481654 0.0985104
634 1 0.847615 0.541514 0.106787
635 1 0.845623 0.479994 0.149134
636 1 0.79529 0.541121 0.147369
637 1 0.888316 0.493503 0.102405
638 1 0.938428 0.53932 0.104851
639 1 0.959132 0.491671 0.148793
640 1 0.903881 0.550274 0.157332
641 1 0.997059 0.589406 0.0978304
642 1 0.0380316 0.649097 0.0955837
643 1 0.0411636 0.604064 0.156434
644 1 0.99312 0.649309 0.139831
645 1 0.080058 0.594145 0.105652
646 1 0.136989 0.640267 0.0994472
647 1 0.128182 0.59688 0.154474
648 1 0.0899108 0.652497 0.147307
649 1 0.186056 0.59935 0.0908825
650 1 0.238046 0.666807 0.130502
651 1 0.235386 0.603244 0.149954
652 1 0.175825 0.650077 0.149586
653 1 0.286767 0.603061 0.0986693
654 1 0.338886 0.638304 0.0972852
655 1 0.346467 0.592935 0.143884
656 1 0.300773 0.63754 0.151399
657 1 0.392228 0.589992 0.0934322
658 1 0.431463 0.642627 0.0916764
659 1 0.440473 0.586818 0.141848
660 1 0.400355 0.643511 0.147262
661 1 0.485977 0.590408 0.0981789
662 1 0.531997 0.646677 0.0984751
663 1 0.538848 0.597269 0.146308
664 1 0.477765 0.641501 0.13831
665 1 0.599579 0.607758 0.102243
666 1 0.656321 0.644553 0.0999622
667 1 0.65124 0.590799 0.153234
668 1 0.628298 0.653144 0.156803
669 1 0.695651 0.59737 0.10434
670 1 0.75247 0.638343 0.102636
671 1 0.737293 0.586477 0.146014
672 1 0.700093 0.642075 0.152801
673 1 0.795961 0.582339 0.099455
674 1 0.844198 0.637208 0.0915462
675 1 0.857988 0.591492 0.148913
676 1 0.803704 0.625875 0.139467
677 1 0.904763 0.587032 0.0993049
678 1 0.944162 0.646397 0.108083
679 1 0.954325 0.597374 0.149167
680 1 0.898779 0.642494 0.158813
681 1 0.995829 0.696577 0.0995916
682 1 0.0407653 0.740193 0.0988333
683 1 0.0456127 0.688724 0.148076
684 1 0.982751 0.753409 0.151977
685 1 0.0906775 0.685151 0.0901649
686 1 0.142994 0.730836 0.109219
687 1 0.137301 0.696846 0.175883
688 1 0.0913315 0.728242 0.153248
689 1 0.190698 0.690821 0.0893687
690 1 0.24273 0.758505 0.145319
691 1 0.198929 0.713005 0.149045
692 1 0.190516 0.775639 0.100232
693 1 0.294065 0.697833 0.120763
694 1 0.347193 0.735617 0.111299
695 1 0.349531 0.677951 0.147626
696 1 0.310086 0.739878 0.18548
697 1 0.387061 0.694409 0.0874401
698 1 0.426424 0.742328 0.0949672
699 1 0.444546 0.69523 0.136655
700 1 0.387927 0.74774 0.165811
701 1 0.494266 0.697222 0.0833873
702 1 0.534147 0.752298 0.0969898
703 1 0.580152 0.706304 0.143409
704 1 0.516584 0.711415 0.144837
705 1 0.596565 0.670747 0.0892817
706 1 0.670955 0.727419 0.117154
707 1 0.660372 0.701912 0.184083
708 1 0.626469 0.74584 0.16541
709 1 0.716731 0.687956 0.100637
710 1 0.755083 0.739658 0.0974253
711 1 0.758271 0.687614 0.147533
712 1 0.712992 0.738958 0.157062
713 1 0.801111 0.688244 0.0932868
714 1 0.839565 0.739259 0.109238
715 1 0.836663 0.673824 0.152876
716 1 0.793931 0.744815 0.159662
717 1 0.885609 0.677497 0.110127
718 1 0.936155 0.734592 0.107619
719 1 0.943407 0.697221 0.155278
720 1 0.882102 0.73488 0.156735
721 1 0.995327 0.780088 0.0931222
722 1 0.0443398 0.827508 0.0997425
723 1 0.0508351 0.782436 0.150799
724 1 0.978738 0.834486 0.149094
725 1 0.100222 0.789337 0.107255
726 1 0.184238 0.880346 0.109836
727 1 0.105981 0.79906 0.184787
728 1 0.0913747 0.84315 0.13902
729 1 0.156035 0.827741 0.115636
730 1 0.236757 0.858767 0.0951388
731 1 0.240117 0.790564 0.202671
732 1 0.203171 0.82627 0.157921
733 1 0.291974 0.770455 0.0963257
734 1 0.314515 0.83901 0.0941247
735 1 0.325911 0.797803 0.155203
736 1 0.327703 0.868082 0.155414
737 1 0.378934 0.798195 0.124576
738 1 0.454883 0.834081 0.122492
739 1 0.434139 0.787287 0.156035
740 1 0.344015 0.813517 0.242804
741 1 0.473912 0.77262 0.115317
742 1 0.52139 0.815456 0.122338
743 1 0.498858 0.776335 0.17871
744 1 0.492404 0.855791 0.187632
745 1 0.603343 0.746745 0.107918
746 1 0.640282 0.862298 0.0906963
747 1 0.633286 0.803705 0.131397
748 1 0.57061 0.782638 0.146246
749 1 0.699688 0.782531 0.10536
750 1 0.746226 0.834561 0.102456
751 1 0.753732 0.801674 0.15641
752 1 0.67935 0.850459 0.138121
753 1 0.799928 0.791707 0.111071
754 1 0.841921 0.847322 0.104233
755 1 0.837446 0.79028 0.163001
756 1 0.797832 0.848554 0.158647
757 1 0.878193 0.790076 0.109201
758 1 0.931063 0.822593 0.105103
759 1 0.931992 0.80026 0.160371
760 1 0.873227 0.836759 0.156966
761 1 0.982336 0.882219 0.0978492
762 1 0.0170596 0.93765 0.113743
763 1 0.0414521 0.876628 0.15679
764 1 0.977465 0.946158 0.163226
765 1 0.0891932 0.888946 0.0905668
766 1 0.166922 0.94365 0.107359
767 1 0.133559 0.93654 0.177991
768 1 0.0756823 0.936993 0.153891
769 1 0.228984 0.933962 0.115615
770 1 0.272943 0.930849 0.0701468
771 1 0.26968 0.828147 0.141972
772 1 0.195186 0.924765 0.17407
773 1 0.285747 0.900912 0.129924
774 1 0.322284 0.963292 0.103284
775 1 0.317714 0.87471 0.243275
776 1 0.286476 0.963651 0.157577
777 1 0.364022 0.917642 0.127448
778 1 0.425407 0.961605 0.0786011
779 1 0.384108 0.812366 0.197531
780 1 0.396505 0.854424 0.142947
781 1 0.421542 0.902901 0.101881
782 1 0.548715 0.901868 0.113428
783 1 0.553097 0.87048 0.164587
784 1 0.513193 0.918776 0.160206
785 1 0.577356 0.850739 0.0982352
786 1 0.678934 0.964616 0.0747964
787 1 0.625898 0.899804 0.143093
788 1 0.622932 0.953597 0.109448
789 1 0.70735 0.887232 0.0808803
790 1 0.76621 0.937083 0.102724
791 1 0.741681 0.883546 0.145032
792 1 0.696932 0.930294 0.124216
793 1 0.779073 0.881715 0.073064
794 1 0.841285 0.922653 0.0924193
795 1 0.847982 0.890835 0.147605
796 1 0.802059 0.947694 0.154854
797 1 0.901305 0.881593 0.0874258
798 1 0.939663 0.934127 0.10669
799 1 0.929681 0.880791 0.142783
800 1 0.877205 0.939452 0.155152
801 1 0.976617 0.991429 0.203169
802 1 0.0361449 0.0401251 0.197756
803 1 0.0292087 0.986479 0.239944
804 1 0.98958 0.0386807 0.245068
805 1 0.0835966 0.965885 0.217849
806 1 0.127211 0.00948181 0.216964
807 1 0.142022 0.975399 0.283092
808 1 0.0751697 0.0341817 0.254193
809 1 0.184573 0.974512 0.213082
810 1 0.227771 0.0494732 0.202529
811 1 0.245389 0.983465 0.227491
812 1 0.176824 0.056054 0.230865
813 1 0.30589 0.96745 0.212392
814 1 0.290117 0.0403039 0.20599
815 1 0.348424 0.0256688 0.243858
816 1 0.283052 0.0117597 0.269621
817 1 0.374211 0.0371149 0.187322
818 1 0.436244 0.0525306 0.184839
819 1 0.445585 0.0210515 0.261915
820 1 0.40436 0.0661047 0.242466
821 1 0.521656 0.996172 0.161264
822 1 0.501458 0.0359463 0.20809
823 1 0.561568 0.00474705 0.23346
824 1 0.483701 0.980656 0.300748
825 1 0.560424 0.0566977 0.204113
826 1 0.613419 0.0293946 0.176807
827 1 0.682441 0.0053953 0.257237
828 1 0.619753 0.0411431 0.251096
829 1 0.693243 0.0348781 0.204026
830 1 0.753081 0.0584453 0.201183
831 1 0.732329 0.995116 0.221566
832 1 0.729036 0.0453039 0.262535
833 1 0.800442 0.996819 0.200979
834 1 0.854678 0.0487123 0.191416
835 1 0.85438 0.999662 0.253773
836 1 0.804927 0.0347751 0.255084
837 1 0.895363 0.999152 0.195975
838 1 0.935574 0.0439955 0.206761
839 1 0.93041 0.00337091 0.261008
840 1 0.888045 0.0565628 0.252434
841 1 0.99095 0.0816279 0.189718
842 1 0.0428518 0.13827 0.191069
843 1 0.0373927 0.0881019 0.245246
844 1 0.995516 0.15737 0.248421
845 1 0.0902547 0.0843144 0.215949
846 1 0.140074 0.132982 0.199692
847 1 0.141926 0.0990147 0.258303
848 1 0.0886736 0.136384 0.250187
849 1 0.199964 0.104008 0.18601
850 1 0.243373 0.159549 0.189873
851 1 0.23313 0.0706339 0.259775
852 1 0.185322 0.146724 0.240085
853 1 0.267178 0.101588 0.201855
854 1 0.330949 0.146054 0.168278
855 1 0.344193 0.0858308 0.228016
856 1 0.280924 0.14951 0.246815
857 1 0.38926 0.10959 0.18256
858 1 0.442059 0.139593 0.207051
859 1 0.467896 0.0819825 0.261887
860 1 0.385017 0.13324 0.243271
861 1 0.507424 0.0981071 0.209922
862 1 0.547248 0.172385 0.205551
863 1 0.535718 0.0854317 0.261485
864 1 0.498313 0.145556 0.252128
865 1 0.592123 0.109032 0.229116
866 1 0.63808 0.082529 0.193085
867 1 0.649352 0.114318 0.247751
868 1 0.602986 0.163206 0.240951
869 1 0.698905 0.0998287 0.20329
870 1 0.749858 0.164707 0.205958
871 1 0.748505 0.110852 0.238186
872 1 0.70226 0.158881 0.254003
873 1 0.800663 0.111632 0.206076
874 1 0.848339 0.160297 0.190447
875 1 0.83605 0.098205 0.260541
876 1 0.807536 0.158253 0.248331
877 1 0.895574 0.102075 0.20034
878 1 0.933829 0.153084 0.203552
879 1 0.93958 0.0980316 0.245174
880 1 0.880365 0.152578 0.243184
881 1 0.000787016 0.189535 0.190167
882 1 0.0471655 0.241749 0.197669
883 1 0.0461044 0.193459 0.246441
884 1 0.984687 0.233142 0.243805
885 1 0.0991418 0.194262 0.197507
886 1 0.139985 0.242705 0.191229
887 1 0.132404 0.182167 0.250926
888 1 0.0945348 0.242742 0.256255
889 1 0.185164 0.194578 0.199047
890 1 0.232191 0.246451 0.201881
891 1 0.233151 0.200397 0.252303