ITEM: TIMESTEP
38000
ITEM: NUMBER OF ATOMS
4000
ITEM: BOX BOUNDS pp pp pp
0.0000000000000000e+00 1.6795961913825074e+01
0.0000000000000000e+00 1.6795961913825074e+01
0.0000000000000000e+00 1.6795961913825074e+01
ITEM: ATOMS id type xs ys zs
1 1 0.122337 0.0197052 0.967989
2 1 0.992224 0.145632 0.929442
3 1 0.0104574 0.971758 0.987069
4 1 0.210982 0.216077 0.13766
5 1 0.247602 0.991435 0.170228
6 1 0.302418 0.0247591 0.0571491
7 1 0.303154 0.92083 0.822828
8 1 0.0466242 0.00989848 0.158475
9 1 0.383674 0.946809 0.00919341
10 1 0.261954 0.109813 0.972685
11 1 0.960208 0.954861 0.10849
12 1 0.242259 0.0873513 0.831587
13 1 0.369581 0.123201 0.167958
14 1 0.413324 0.0160692 0.895899
15 1 0.433952 0.272927 0.124748
16 1 0.173927 0.969138 0.151533
17 1 0.419744 0.955581 0.893711
18 1 0.38333 0.927912 0.944407
19 1 0.518782 0.798119 0.157664
20 1 0.338493 0.152429 0.281232
21 1 0.45479 0.824437 0.15719
22 1 0.419843 0.123349 0.0887591
23 1 0.618946 0.994545 0.933784
24 1 0.703222 0.16053 0.79357
25 1 0.564856 0.786416 0.968182
26 1 0.557897 0.918428 0.0264404
27 1 0.526019 0.239865 0.219708
28 1 0.671866 0.995558 0.892516
29 1 0.633425 0.978133 0.0634578
30 1 0.804075 0.950006 0.827469
31 1 0.712346 0.0504345 0.20914
32 1 0.679965 0.144679 0.170725
33 1 0.812478 0.855269 0.0466079
34 1 0.670059 0.128608 0.894937
35 1 0.694921 0.945519 0.164608
36 1 0.848343 0.139341 0.90397
37 1 0.676108 0.0269425 0.942721
38 1 0.718487 0.97421 0.916618
39 1 0.97093 0.946505 0.939755
40 1 0.965082 0.836247 0.105341
41 1 0.886209 0.194843 0.886228
42 1 0.0862634 0.916985 0.916839
43 1 0.955805 0.0544436 0.212276
44 1 0.0294501 0.040168 0.211701
45 1 0.0287622 0.0491323 0.117334
46 1 0.394103 0.22615 0.122377
47 1 0.287922 0.978341 0.991445
48 1 0.26236 0.369997 0.185841
49 1 0.0648103 0.908033 0.782769
50 1 0.410616 0.193154 0.285583
51 1 0.330681 0.926575 0.101436
52 1 0.0722531 0.278349 0.139634
53 1 0.163609 0.121547 0.941682
54 1 0.471454 0.969564 0.778119
55 1 0.552505 0.0917641 0.378826
56 1 0.410936 0.185638 0.0631988
57 1 0.574656 1.00016 0.120616
58 1 0.567204 0.189313 0.0534532
59 1 0.273923 0.105986 0.131038
60 1 0.431462 0.0528077 0.0473082
61 1 0.515868 0.165867 0.819511
62 1 0.542013 0.296964 0.258157
63 1 0.673608 0.0350226 0.0532163
64 1 0.471409 0.0172506 0.988034
65 1 0.624326 0.963749 0.770612
66 1 0.514812 0.109954 0.0688181
67 1 0.423194 0.855491 0.0999356
68 1 0.152086 0.0287933 0.160175
69 1 0.574483 0.0339952 0.945903
70 1 0.824919 0.184392 0.822383
71 1 0.705254 0.116316 0.110769
72 1 0.562573 0.14533 0.905827
73 1 0.826196 0.981982 0.956712
74 1 0.823961 0.116485 0.0232171
75 1 0.672751 0.0814958 0.973146
76 1 0.640354 0.0753285 0.227786
77 1 0.777221 0.00967652 0.182307
78 1 0.680848 0.0592142 0.268456
79 1 0.0471986 0.0415128 0.89291
80 1 0.618244 0.332856 0.159943
81 1 0.12103 0.206161 0.0143855
82 1 0.902713 0.0592797 0.940974
83 1 0.00938434 0.16046 0.00836867
84 1 0.142946 0.350815 0.00976786
85 1 0.756278 0.183664 0.789113
86 1 0.530991 0.411883 0.928145
87 1 0.460924 0.36955 0.942655
88 1 0.187905 0.156906 0.897483
89 1 0.226053 0.195299 0.0715168
90 1 0.0121942 0.245857 0.941209
91 1 0.0453989 0.163647 0.112853
92 1 0.318943 0.136281 0.95751
93 1 0.249953 0.273047 0.787873
94 1 0.261731 0.0957071 0.757386
95 1 0.535092 0.0550612 0.192558
96 1 0.328227 0.243799 0.117509
97 1 0.307735 0.0860669 0.926034
98 1 0.49515 -0.000201745 0.197865
99 1 0.216425 0.159597 0.227636
100 1 0.520863 0.193632 0.993389
101 1 0.525524 0.054925 0.862561
102 1 0.417505 0.11252 0.970008
103 1 0.784796 0.298189 0.0374518
104 1 0.624579 0.275325 0.999431
105 1 0.450257 0.965817 0.166969
106 1 0.570573 0.137318 0.664051
107 1 0.658194 0.928933 0.101446
108 1 0.554903 0.219411 0.153439
109 1 0.896308 0.832348 0.894877
110 1 0.827132 0.488086 0.986451
111 1 0.853504 0.282747 0.036996
112 1 0.81662 0.190471 0.0604235
113 1 0.930742 0.0814458 0.0616965
114 1 0.524133 0.306523 0.0585326
115 1 0.746246 0.0748375 0.0936304
116 1 0.729554 0.322981 0.0217424
117 1 0.0129158 0.131871 0.071732
118 1 0.732202 0.0560143 0.938303
119 1 0.931186 0.192783 0.24437
120 1 0.8764 0.106881 0.119315
121 1 0.108273 0.438773 0.00938815
122 1 0.216855 0.299124 0.933775
123 1 0.908793 0.16912 0.97085
124 1 0.238358 0.503904 0.953001
125 1 0.191856 0.183058 0.965256
126 1 0.19198 0.42076 0.0941462
127 1 0.109377 0.365651 0.794587
128 1 0.191459 0.343257 0.97417
129 1 0.506979 0.120813 0.88284
130 1 0.579801 0.220209 0.997037
131 1 0.145332 0.259099 0.823178
132 1 0.459096 0.307897 0.962608
133 1 0.223778 0.270659 0.329859
134 1 0.430713 0.442418 0.847151
135 1 0.352005 0.444414 0.993328
136 1 0.424141 0.191551 0.185328
137 1 0.357488 0.279228 0.0424245
138 1 0.455501 0.112491 0.0330702
139 1 0.589281 0.42321 0.164794
140 1 0.334358 0.320481 0.0791168
141 1 0.511679 0.260833 0.889321
142 1 0.750376 0.357085 0.891246
143 1 0.541436 0.204327 0.93152
144 1 0.604243 0.12572 0.369805
145 1 0.85546 0.196769 0.945912
146 1 0.702663 0.375137 0.0102472
147 1 0.577766 0.305651 0.126719
148 1 0.506556 0.27502 0.945349
149 1 0.740279 0.207477 0.975326
150 1 0.725442 0.413232 0.087037
151 1 0.857462 0.211384 0.154371
152 1 0.778241 0.295652 0.913294
153 1 0.818859 0.280039 0.983529
154 1 0.828791 0.339228 0.936921
155 1 0.865204 0.395991 0.940321
156 1 0.893055 0.446434 0.96466
157 1 0.0587715 0.464492 0.995234
158 1 0.164863 0.387548 0.891944
159 1 0.0341549 0.231078 0.110535
160 1 0.802385 0.422648 0.0540601
161 1 0.995406 0.312716 0.154053
162 1 0.131784 0.521663 0.0838453
163 1 0.0734393 0.558893 0.0890515
164 1 0.0825671 0.451274 0.0955056
165 1 0.175166 0.405878 0.0144743
166 1 0.0965396 0.556005 0.0363722
167 1 0.0625342 0.377471 0.233719
168 1 0.0643982 0.524174 0.926722
169 1 0.200674 0.505655 0.906679
170 1 0.101309 0.449534 0.157974
171 1 0.382879 0.290895 0.960968
172 1 0.083455 0.313616 0.218462
173 1 0.319482 0.329109 0.948291
174 1 0.248928 0.528257 0.0637294
175 1 0.257726 0.421879 0.0841095
176 1 0.26004 0.234722 0.936812
177 1 0.630237 0.382552 0.881989
178 1 0.527512 0.562628 0.127945
179 1 0.440269 0.260323 0.924001
180 1 0.265262 0.488534 0.106242
181 1 0.493061 0.399719 0.018983
182 1 0.6899 0.19524 0.024371
183 1 0.58508 0.375261 0.114416
184 1 0.346064 0.491291 0.0277245
185 1 0.568524 0.437353 0.977279
186 1 0.725696 0.481972 0.147339
187 1 0.458216 0.353586 0.789981
188 1 0.454562 0.165449 0.99283
189 1 0.640092 0.218513 0.996211
190 1 0.851567 0.243824 0.0836228
191 1 0.706152 0.359122 0.121344
192 1 0.732124 0.53401 0.170115
193 1 0.630599 0.286693 0.0848698
194 1 0.97636 0.376943 0.0843095
195 1 0.901023 0.499233 0.177843
196 1 0.81183 0.331277 0.994752
197 1 0.792337 0.371231 0.153398
198 1 0.0906224 0.387275 0.102954
199 1 0.10799 0.31629 0.961563
200 1 0.818522 0.622906 0.837956
201 1 0.149383 0.472977 0.124757
202 1 0.0713064 0.828226 0.0647443
203 1 0.942579 0.647224 0.855907
204 1 0.909991 0.719028 0.770973
205 1 0.221766 0.621952 0.81348
206 1 0.0567234 0.849126 0.00045165
207 1 0.0576684 0.616675 0.779233
208 1 0.103582 0.413413 0.872854
209 1 0.3352 0.357391 0.24652
210 1 0.203578 0.58882 0.870528
211 1 0.308642 0.343273 0.153666
212 1 0.113782 0.854141 0.0171388
213 1 0.0226295 0.35097 0.00431148
214 1 0.356482 0.625828 0.986004
215 1 0.412652 0.390029 0.919991
216 1 0.299629 0.459146 0.0446737
217 1 0.335364 0.450323 0.0907579
218 1 0.47803 0.593134 0.101426
219 1 0.188219 0.612743 0.216799
220 1 0.152883 0.633757 0.259019
221 1 0.617025 0.405559 0.000680492
222 1 0.702637 0.439745 0.20835
223 1 0.643585 0.504706 0.127324
224 1 0.544056 0.447978 0.049591
225 1 0.43552 0.690179 0.920282
226 1 0.925218 0.307365 0.0207864
227 1 0.464841 0.596054 0.0170925
228 1 0.586808 0.647162 0.0475582
229 1 0.11504 0.740499 0.00161717
230 1 0.963455 0.508104 0.884093
231 1 0.725581 0.58106 0.0732461
232 1 0.628535 0.492578 0.236885
233 1 0.897647 0.485908 0.0620912
234 1 0.881879 0.507063 0.949519
235 1 0.0658619 0.416258 0.0547861
236 1 0.986037 0.625653 0.0126543
237 1 0.968931 0.295818 0.208493
238 1 0.889715 0.505306 0.00776103
239 1 0.925679 0.384486 0.199891
240 1 0.866254 0.382811 0.155222
241 1 0.728895 0.782321 0.125966
242 1 0.0805295 0.794805 0.781965
243 1 0.984493 0.599022 0.148603
244 1 0.0486921 0.789657 0.890361
245 1 0.0989441 0.807061 0.962972
246 1 0.294357 0.59557 0.926776
247 1 0.0116462 0.510299 0.958096
248 1 0.953562 0.524176 0.0201021
249 1 0.233065 0.874564 0.105991
250 1 0.26198 0.762312 0.00370766
251 1 0.241403 0.706552 0.961675
252 1 0.529953 0.795323 0.84793
253 1 0.27766 0.685368 0.0153528
254 1 0.364963 0.603128 0.0813292
255 1 0.472981 0.460501 0.105601
256 1 0.496952 0.72021 0.00395057
257 1 0.249947 0.526423 0.181771
258 1 0.290007 0.722773 0.770091
259 1 0.284009 0.485474 0.992609
260 1 0.342772 0.59698 0.139973
261 1 0.576425 0.48381 0.832795
262 1 0.715666 0.59247 0.15199
263 1 0.571992 0.492075 0.204896
264 1 0.402563 0.661946 0.105748
265 1 0.516936 0.561046 0.0526992
266 1 0.783674 0.689257 0.00440574
267 1 0.61995 0.604901 0.158512
268 1 0.713553 0.464056 0.261531
269 1 0.834166 0.522701 0.163068
270 1 0.846049 0.461682 0.211019
271 1 0.806389 0.545028 0.279924
272 1 0.870753 0.673573 0.930517
273 1 0.976687 0.551626 0.924959
274 1 0.731676 0.889984 0.938396
275 1 0.762732 0.518924 0.109339
276 1 0.611357 0.480284 0.0306887
277 1 0.824058 0.564702 0.100515
278 1 0.760524 0.708827 0.79156
279 1 0.637769 0.627018 0.0200508
280 1 0.734881 0.610918 0.936944
281 1 0.926979 0.733531 0.0453878
282 1 0.072821 0.106105 0.0663045
283 1 0.987888 0.719286 0.0675127
284 1 0.996421 0.959141 0.766669
285 1 0.977208 0.770333 0.101284
286 1 0.274793 0.764052 0.0926619
287 1 0.293603 0.773166 0.945914
288 1 0.140267 0.607942 0.954942
289 1 0.321074 0.894191 0.973968
290 1 0.392633 0.894747 0.732342
291 1 0.325072 0.928837 0.0268402
292 1 0.44832 0.696464 0.0751586
293 1 0.325306 0.654119 0.170067
294 1 0.485656 0.657729 0.744008
295 1 0.274327 0.762258 0.176652
296 1 0.333789 0.743025 0.164826
297 1 0.633997 0.674973 0.0905894
298 1 0.427993 0.710355 0.00698007
299 1 0.380743 0.5743 0.769642
300 1 0.285764 0.00490144 0.900708
301 1 0.371696 0.697562 0.0688447
302 1 0.585314 0.704553 0.0668059
303 1 0.715506 0.746956 0.249429
304 1 0.448253 0.785688 0.994922
305 1 0.450527 0.560052 0.968069
306 1 0.519677 0.576038 0.621997
307 1 0.656554 0.857881 0.0295271
308 1 0.468512 0.658367 0.0303206
309 1 0.78966 0.537887 0.0476292
310 1 0.768573 0.959976 0.00524318
311 1 0.948747 0.598573 0.246859
312 1 0.551304 0.701493 0.201012
313 1 0.683473 0.438822 0.991718
314 1 0.789203 0.790023 0.949661
315 1 0.782138 0.888016 0.138117
316 1 0.644206 0.68182 0.181247
317 1 0.886542 0.667443 0.0373788
318 1 0.802303 0.69148 0.93061
319 1 0.988978 0.471756 0.0578814
320 1 0.772555 0.80387 0.0123774
321 1 0.111235 0.978637 0.851724
322 1 0.798506 0.975804 0.884317
323 1 0.112875 0.757837 0.0690661
324 1 0.0370403 0.866621 0.938664
325 1 0.0916053 0.712992 0.88903
326 1 0.921558 0.636579 0.914599
327 1 0.950196 0.668542 0.0483362
328 1 0.212957 0.908203 0.0424239
329 1 0.0237758 0.810161 0.94978
330 1 0.437379 0.876632 0.00973388
331 1 0.361556 0.865777 0.942257
332 1 0.189319 0.892735 0.233025
333 1 0.35398 0.967447 0.882332
334 1 0.350947 0.798595 0.933335
335 1 0.553282 0.770661 0.203398
336 1 0.165195 0.826789 0.128262
337 1 0.301225 0.804356 0.891289
338 1 0.265019 0.890877 0.996278
339 1 0.431206 0.706752 0.601256
340 1 0.247396 0.997938 0.104577
341 1 0.663464 0.681957 0.880233
342 1 0.586953 0.881369 0.185524
343 1 0.506278 0.868907 0.0429328
344 1 0.410299 0.791078 0.0866808
345 1 0.562258 0.384887 0.0209867
346 1 0.625024 0.0464723 0.99809
347 1 0.467514 0.403923 0.119509
348 1 0.555734 0.846619 0.146404
349 1 0.494305 0.734292 0.107197
350 1 0.612517 0.935966 0.925508
351 1 0.768756 0.688003 0.105933
352 1 0.840911 0.928381 0.195965
353 1 0.738466 0.925975 0.871431
354 1 0.71225 0.666162 0.996671
355 1 0.685736 0.802683 0.0861312
356 1 0.619351 0.88542 0.124902
357 1 0.690725 0.745118 0.0404125
358 1 0.959126 0.793802 0.966391
359 1 0.848542 0.711657 0.114526
360 1 0.850836 0.974402 0.0706128
361 1 0.211413 0.799558 0.0202959
362 1 0.226569 0.709976 0.808332
363 1 0.0741264 0.887594 0.180427
364 1 0.241945 0.961259 0.880308
365 1 0.921231 0.00243955 0.935391
366 1 0.210728 0.886094 0.932251
367 1 0.0670453 0.083138 0.248735
368 1 0.282537 0.0106469 0.344236
369 1 0.332558 0.11053 0.105324
370 1 0.275946 0.370583 0.0995356
371 1 0.283021 0.165306 0.0729177
372 1 0.978744 0.887528 0.0320112
373 1 0.410919 0.112306 0.852732
374 1 0.116611 0.898939 0.854443
375 1 0.517527 0.682518 0.143213
376 1 0.359393 0.882353 0.0742602
377 1 0.358671 0.723844 0.927332
378 1 0.396058 0.841225 0.0434439
379 1 0.430551 0.984405 0.265616
380 1 0.349884 0.819721 0.0793822
381 1 0.471948 0.914345 0.106659
382 1 0.584573 0.189624 0.271349
383 1 0.657159 0.161029 0.262486
384 1 0.521212 0.970812 0.371039
385 1 0.612584 0.113148 0.165035
386 1 0.730631 0.0589673 0.00604092
387 1 0.56512 0.970916 0.926244
388 1 0.469256 0.991619 0.0772614
389 1 0.664264 0.0982151 0.837563
390 1 0.943995 0.967093 0.995195
391 1 0.652455 0.897576 0.18586
392 1 0.681662 0.865065 0.236269
393 1 0.771395 0.931395 0.620148
394 1 0.952226 0.898725 0.975891
395 1 0.529609 0.684765 0.0840084
396 1 0.82277 0.194428 0.887379
397 1 0.191656 0.170002 0.0276564
398 1 0.124763 0.799066 0.904319
399 1 0.187155 0.232739 0.00840381
400 1 0.796553 0.00145906 0.0481552
401 1 0.896566 0.100545 0.995199
402 1 0.267514 0.189035 0.183491
403 1 0.144057 0.00758317 0.09972
404 1 0.712497 0.976317 0.102347
405 1 0.240721 0.28779 0.160411
406 1 0.276339 0.227154 0.140647
407 1 0.248602 0.0539469 0.159134
408 1 0.532947 0.172271 0.219767
409 1 0.114775 0.0957753 0.173608
410 1 0.18939 0.00513969 0.206849
411 1 0.105755 0.970386 0.24749
412 1 0.433181 0.907655 0.159273
413 1 0.17047 0.025977 0.0353862
414 1 0.385876 0.909398 0.128617
415 1 0.360591 0.966063 0.0659666
416 1 0.419513 0.0789094 0.188228
417 1 0.562269 0.848971 0.031179
418 1 0.390308 0.126646 0.298652
419 1 0.371291 0.159332 0.382533
420 1 0.313614 0.0911791 0.188324
421 1 0.307946 0.98976 0.190204
422 1 0.62048 0.838046 0.258163
423 1 0.786561 0.774065 0.225963
424 1 0.445748 0.987515 0.393116
425 1 0.450479 0.923753 0.398456
426 1 0.671822 0.903723 0.289667
427 1 0.752359 0.844899 0.966397
428 1 0.48386 0.031222 0.816894
429 1 0.768294 0.251929 0.0927844
430 1 0.78724 0.0200264 0.989483
431 1 0.707888 0.915759 0.0418372
432 1 0.594916 0.0626968 0.194619
433 1 0.875675 0.906564 0.0385312
434 1 0.998191 0.997002 0.271794
435 1 0.677629 0.0514184 0.115296
436 1 0.748312 0.0797793 0.266687
437 1 0.880851 0.00301495 0.97749
438 1 0.587861 0.0813305 0.874552
439 1 0.920505 0.0300873 0.877078
440 1 0.749925 0.960769 0.151008
441 1 0.965729 0.0263138 0.972088
442 1 0.0541796 0.178077 0.0466515
443 1 0.018084 0.186287 0.160761
444 1 0.983767 0.13135 0.17433
445 1 0.194611 0.000837965 0.896778
446 1 0.994357 0.194851 0.0660417
447 1 0.905619 0.0923563 0.20677
448 1 0.345104 0.922959 0.223813
449 1 0.145007 0.338433 0.396692
450 1 0.0595919 0.157461 0.259364
451 1 0.418027 0.998142 0.0257513
452 1 0.166591 0.00877524 0.268129
453 1 0.324089 0.177723 0.00985844
454 1 0.403766 0.466641 0.00151324
455 1 0.433939 0.838321 0.267237
456 1 0.237257 0.390138 0.0300337
457 1 0.320937 0.14674 0.219238
458 1 0.554204 0.107347 0.176581
459 1 0.751714 0.12932 0.18155
460 1 0.447757 0.139378 0.926845
461 1 0.56095 0.827508 0.211834
462 1 0.256386 0.055892 0.301139
463 1 0.453824 0.871445 0.348753
464 1 0.576527 0.120526 0.430396
465 1 0.524136 0.0343459 0.139559
466 1 0.744662 0.109251 0.899908
467 1 0.517915 0.0258663 0.0724832
468 1 0.647325 0.276346 0.30919
469 1 0.786319 0.374284 0.964497
470 1 0.55871 0.956557 0.24129
471 1 0.85013 0.984549 0.136417
472 1 0.631613 0.0690753 0.925561
473 1 0.813365 0.115777 0.223796
474 1 0.119187 0.23635 0.886799
475 1 0.927105 0.153331 0.841675
476 1 0.764341 0.177138 0.114636
477 1 0.691036 0.873469 0.0977901
478 1 0.964293 0.334397 0.980849
479 1 0.880745 0.0410078 0.132289
480 1 0.7746 0.933531 0.203309
481 1 0.0557654 0.243638 0.873153
482 1 0.1604 0.31315 0.0870098
483 1 0.107381 0.151013 0.145744
484 1 0.983398 0.241524 0.145265
485 1 0.139732 0.112535 0.106291
486 1 0.119514 0.392933 0.174807
487 1 0.394808 0.567326 0.143473
488 1 0.894803 0.136605 0.0566169
489 1 0.0766041 0.162066 0.993979
490 1 0.264988 0.354121 0.291576
491 1 0.355045 0.172252 0.111678
492 1 0.204724 0.298638 0.0397041
493 1 0.176721 0.157496 0.832631
494 1 0.325069 1.00278 0.117452
495 1 0.416318 0.199102 0.418974
496 1 0.415995 0.428676 0.0976659
497 1 0.295714 0.973437 0.843142
498 1 0.275661 0.0600834 0.239665
499 1 0.224085 0.22743 0.279571
500 1 0.278387 0.0365766 0.843551
501 1 0.486943 0.165563 0.342045
502 1 0.523187 0.0945765 0.122298
503 1 0.712696 0.313132 0.339971
504 1 0.534995 0.396428 0.153614
505 1 0.525251 0.0116549 0.920724
506 1 0.787704 0.359644 0.258846
507 1 0.60824 0.00696437 0.238371
508 1 0.55097 0.06691 -0.000107673
509 1 0.775441 0.132128 0.070955
510 1 0.827001 0.909348 0.0768335
511 1 0.562181 0.0919878 0.24391
512 1 0.726183 0.294118 0.468393
513 1 0.586341 0.397517 0.3774
514 1 0.851018 0.450499 0.0352555
515 1 0.79463 0.283147 0.159304
516 1 0.79743 0.18655 0.996687
517 1 0.130229 0.154617 0.0522039
518 1 0.884305 0.937848 0.154841
519 1 0.808736 0.17115 0.268977
520 1 0.934775 0.330113 0.0813979
521 1 0.312127 0.296346 0.00325129
522 1 0.165634 0.211878 0.0673231
523 1 0.795834 0.0994437 0.132607
524 1 0.0290367 0.361424 0.119606
525 1 0.00247941 0.2832 0.99399
526 1 0.344136 0.356001 0.0154429
527 1 0.013665 0.207275 0.219276
528 1 0.231086 0.205438 0.893488
529 1 0.357768 0.183963 0.176489
530 1 0.265375 0.32236 0.050363
531 1 0.298237 0.52597 0.222651
532 1 0.134146 0.384887 0.954642
533 1 0.36087 0.250202 0.911147
534 1 0.209868 0.657725 0.89911
535 1 0.56599 0.517014 0.0577218
536 1 0.428312 0.430616 0.218595
537 1 0.427613 0.347801 0.113547
538 1 0.678929 0.306858 0.144405
539 1 0.382361 0.24831 0.177753
540 1 0.493909 0.451759 0.226029
541 1 0.469495 0.235208 0.980441
542 1 0.583285 0.185148 0.431881
543 1 0.474619 0.0948922 0.374301
544 1 0.469523 0.357397 0.731984
545 1 0.53014 0.168039 0.0934717
546 1 0.527819 0.276461 0.00244152
547 1 0.563752 0.290041 0.188153
548 1 0.80604 0.430698 0.972208
549 1 0.896796 0.0243097 0.068102
550 1 0.88709 0.253783 0.19491
551 1 0.677501 0.307728 0.974864
552 1 0.751405 0.203417 0.18946
553 1 0.857591 0.168969 0.0186129
554 1 0.814377 0.418484 0.116382
555 1 0.91299 0.320236 0.212116
556 1 0.76291 0.22524 0.372443
557 1 0.0367012 0.321424 0.949146
558 1 0.878301 0.299845 0.978068
559 1 0.761568 0.147132 0.245117
560 1 0.934301 0.198487 0.164605
561 1 0.0452464 0.268789 0.26799
562 1 0.824763 0.490934 0.0912993
563 1 0.916522 0.388472 0.110792
564 1 0.0121207 0.269122 0.0600628
565 1 0.328603 0.485509 0.941162
566 1 0.0378271 0.647358 0.992467
567 1 0.10909 0.27448 0.0945845
568 1 0.0641426 0.537251 0.183376
569 1 0.0928667 0.321352 0.277414
570 1 0.98342 0.488413 0.126113
571 1 0.253327 0.293962 0.994184
572 1 0.0888945 0.487758 0.0464365
573 1 0.309521 0.396831 0.0377802
574 1 0.9891 0.596831 0.892165
575 1 0.465009 0.298065 0.0220039
576 1 0.230125 0.408927 0.965831
577 1 0.39707 0.399326 0.99495
578 1 0.429889 0.0355429 0.686715
579 1 0.592975 0.418947 0.9246
580 1 0.265612 0.673568 0.083599
581 1 0.583624 0.277644 0.0395985
582 1 0.53111 0.466768 0.16469
583 1 0.678251 0.520574 0.987422
584 1 0.465118 0.237331 0.0567724
585 1 0.637973 0.408986 0.126745
586 1 0.768649 0.459549 0.096422
587 1 0.409987 0.311128 0.0624011
588 1 0.302521 0.486567 0.158187
589 1 0.615857 0.227906 0.0583398
590 1 0.717586 0.326315 0.264835
591 1 0.73513 0.384934 0.184752
592 1 0.605529 0.415782 0.0645671
593 1 0.82458 0.237802 0.199952
594 1 0.873638 0.287637 0.246649
595 1 0.637457 0.162162 0.119612
596 1 0.878458 0.162215 0.200686
597 1 0.911636 0.439645 0.0247141
598 1 0.738328 0.641948 0.0487198
599 1 0.824486 0.195984 0.377029
600 1 0.844529 0.563259 0.2087
601 1 0.0428946 0.472946 0.151484
602 1 0.985786 0.561849 0.0645532
603 1 0.0415433 0.346368 0.179462
604 1 0.0582576 0.744714 0.0432036
605 1 0.0639634 0.226921 0.985478
606 1 0.199116 0.55341 0.0836498
607 1 0.922272 0.563501 0.955423
608 1 0.232267 0.686672 0.128405
609 1 0.295468 0.419507 0.144391
610 1 0.238167 0.606383 0.103461
611 1 0.221663 0.717555 0.185641
612 1 0.174522 0.558189 0.0268222
613 1 0.038639 0.488471 0.0939149
614 1 0.288257 0.546848 0.304264
615 1 0.135079 0.389177 0.0655349
616 1 0.363607 0.62398 0.220658
617 1 0.452394 0.442944 0.0428238
618 1 0.501397 0.338362 0.999872
619 1 0.42739 0.611019 0.128325
620 1 0.223466 0.448016 0.0371243
621 1 0.432177 0.619605 0.063294
622 1 0.663846 0.555682 0.171504
623 1 0.746695 0.446913 0.977629
624 1 0.371539 0.286216 0.134767
625 1 0.558995 0.556431 0.965926
626 1 0.766755 0.370204 0.0922958
627 1 0.647418 0.347247 0.106606
628 1 0.563506 0.359461 0.241788
629 1 0.574685 0.584445 0.0723207
630 1 0.587204 0.639168 0.11794
631 1 0.836608 0.588976 0.0389337
632 1 0.85194 0.488253 0.336793
633 1 0.882928 0.559126 0.35575
634 1 0.905793 0.493152 0.249222
635 1 0.783904 0.469892 0.0256239
636 1 0.843174 0.65507 0.128706
637 1 0.791552 0.478102 0.156648
638 1 0.733948 0.641518 0.114738
639 1 0.137942 0.456707 0.0664988
640 1 0.915875 0.470725 0.123336
641 1 0.0207139 0.532818 0.125993
642 1 0.128196 0.666317 0.209188
643 1 0.208653 0.865041 0.00375926
644 1 0.24213 0.70425 0.288183
645 1 0.0315582 0.520291 0.0388262
646 1 0.382776 0.648342 0.0359374
647 1 0.197092 0.787863 0.221752
648 1 0.130567 0.723008 0.261132
649 1 0.148944 0.638386 0.0162134
650 1 0.0932041 0.976979 0.117202
651 1 0.23635 0.56038 0.991329
652 1 0.222418 0.737723 0.0657499
653 1 0.200707 0.608505 -0.000276267
654 1 0.101684 0.552506 0.376402
655 1 0.274432 0.58549 0.34751
656 1 0.378882 0.545049 0.0522671
657 1 0.215699 0.930706 0.980989
658 1 0.497122 0.61228 0.165969
659 1 0.349415 0.495225 0.225925
660 1 0.46331 0.749935 0.0416519
661 1 0.483042 0.53184 0.0932116
662 1 0.523789 0.623824 0.0431208
663 1 0.494881 0.81257 0.267942
664 1 0.533058 0.492349 0.10021
665 1 0.577264 0.696739 0.122935
666 1 0.810676 0.753356 0.437585
667 1 0.532169 0.623298 0.31097
668 1 0.785596 0.557911 0.177006
669 1 0.561269 0.634547 0.172345
670 1 0.680391 0.642132 0.0681934
671 1 0.81347 0.394949 0.205038
672 1 0.858072 0.525804 0.2491
673 1 0.769297 0.588234 0.117221
674 1 0.905697 0.576061 0.291376
675 1 0.0839747 0.633135 0.894568
676 1 0.829539 0.60239 0.156654
677 1 0.60527 0.612682 0.219464
678 1 0.932445 0.578571 0.116116
679 1 0.868318 0.605062 0.0907327
680 1 0.0158425 0.504267 0.198669
681 1 0.280398 0.830667 0.17049
682 1 0.00581703 0.829753 0.0599023
683 1 0.10434 0.675545 0.0425076
684 1 0.824794 0.817842 0.213622
685 1 0.0931872 0.903034 0.0970375
686 1 0.153635 0.626261 0.898117
687 1 0.194529 0.962829 0.0699111
688 1 0.349978 0.757421 0.101021
689 1 0.316581 0.653313 0.113301
690 1 0.32641 0.869503 0.143399
691 1 0.383984 0.866486 0.242261
692 1 0.179371 0.811746 0.331633
693 1 0.360007 0.69548 0.136305
694 1 0.623166 0.744584 0.124484
695 1 0.392601 0.6356 0.317825
696 1 0.516624 0.706115 0.251143
697 1 0.578044 0.604185 0.00621118
698 1 0.393811 0.625843 0.805683
699 1 0.42154 0.548234 0.311518
700 1 0.541641 0.814718 0.378798
701 1 0.549796 0.857102 0.976291
702 1 0.584487 0.731962 0.94286
703 1 0.589681 0.614075 0.941494
704 1 0.278445 0.90334 0.148119
705 1 0.420132 0.491923 0.0631553
706 1 0.60363 0.73488 0.184461
707 1 0.729582 0.783323 0.410145
708 1 0.840432 0.754084 0.361702
709 1 0.565427 0.567467 0.16928
710 1 0.786896 0.747951 0.116351
711 1 0.598157 0.554854 0.118325
712 1 0.809623 0.732403 0.0561083
713 1 0.686696 0.735106 0.950172
714 1 0.0840979 0.783449 0.109012
715 1 0.892108 0.62596 0.146355
716 1 0.858938 0.462829 0.139078
717 1 0.77998 0.644673 0.167758
718 1 0.828941 0.649688 0.0158191
719 1 0.159681 0.770835 0.274759
720 1 0.776536 0.82387 0.165563
721 1 0.0484207 0.899726 0.0580332
722 1 0.136814 0.833743 0.069543
723 1 0.217673 0.801886 0.163344
724 1 0.990593 0.631881 0.0844635
725 1 0.0138958 0.0641886 0.939186
726 1 0.244478 0.239787 0.0361132
727 1 0.000300243 0.607955 0.278364
728 1 0.00334814 0.0748754 0.0649485
729 1 0.0645428 0.828641 0.13526
730 1 0.247558 0.95383 0.0277525
731 1 0.407239 0.737 0.114939
732 1 0.307714 0.868828 0.211743
733 1 0.387824 0.779438 0.153753
734 1 0.461569 0.764744 0.247555
735 1 0.29682 0.621927 0.211662
736 1 0.397858 0.820028 0.978095
737 1 0.507917 0.6594 0.201876
738 1 0.524168 0.970441 0.00176471
739 1 0.557375 0.865428 0.0901639
740 1 0.280588 0.830172 0.992525
741 1 0.764256 0.968396 0.319555
742 1 0.657047 0.731356 0.238637
743 1 0.65982 0.927505 0.00947812
744 1 0.495164 0.874211 0.183658
745 1 0.55451 0.0311814 0.243627
746 1 0.714777 0.933928 0.983261
747 1 0.517697 0.799353 0.0787731
748 1 0.33982 0.685399 0.224485
749 1 0.703778 0.324259 0.199393
750 1 0.729811 0.76709 0.186841
751 1 0.658061 0.52019 0.0627114
752 1 0.680753 0.740824 0.0988885
753 1 0.788129 0.870106 0.844233
754 1 0.98751 0.0475691 0.860292
755 1 0.676723 0.690028 0.129875
756 1 0.899916 0.695143 0.160676
757 1 0.137567 0.878133 0.200861
758 1 0.941763 0.93551 0.0564054
759 1 0.987414 0.0087501 0.141801
760 1 0.81956 0.6879 0.829954
761 1 0.134574 0.635589 0.144659
762 1 1.00037 0.0672085 0.168383
763 1 0.049997 0.974981 0.0317591
764 1 0.0243785 0.0902497 0.00925435
765 1 0.0892426 0.900139 0.981811
766 1 0.172104 0.28343 0.980628
767 1 0.224098 0.988 0.297067
768 1 0.991268 0.977863 0.197633
769 1 0.380594 0.79544 0.26399
770 1 0.912344 0.942246 0.928603
771 1 0.205945 0.126819 0.983691
772 1 0.154848 0.0789208 0.993619
773 1 0.432259 0.019556 0.212469
774 1 0.185184 0.152096 0.167317
775 1 0.263928 0.838647 0.429235
776 1 0.248674 0.11332 0.383936
777 1 0.496638 0.0635367 0.025386
778 1 0.544903 0.916911 0.286138
779 1 0.419701 0.911924 0.064168
780 1 0.397954 0.831814 0.830957
781 1 0.460343 0.136059 0.207703
782 1 0.556272 0.744326 0.311733
783 1 0.323673 0.042955 0.287112
784 1 0.706453 0.984752 0.0343264
785 1 0.554295 0.531262 0.243058
786 1 0.58905 0.931101 0.0871144
787 1 0.883757 0.776821 0.210607
788 1 0.396087 0.105797 0.0272048
789 1 0.595689 0.00703727 0.335763
790 1 0.611061 0.950442 0.143673
791 1 0.945953 0.789314 0.0311367
792 1 0.726565 0.0985156 0.389456
793 1 0.75861 0.710805 0.187247
794 1 0.670683 0.832424 0.14691
795 1 0.120584 0.991266 0.038974
796 1 0.725373 0.98829 0.211461
797 1 0.860468 0.853187 0.0146503
798 1 0.828371 0.0307259 0.0999374
799 1 0.114109 0.156344 0.300265
800 1 0.837107 0.912473 0.968643
801 1 0.990569 0.00914884 0.0285447
802 1 0.0930865 0.0305459 0.21615
803 1 0.287319 0.95942 0.137452
804 1 0.902375 0.976007 0.0355945
805 1 0.907832 0.842342 0.132334
806 1 0.136885 0.161039 0.977834
807 1 0.0307456 0.10167 0.469013
808 1 0.223402 0.92135 0.303245
809 1 0.173494 0.906558 0.148738
810 1 0.19063 1.00001 0.384166
811 1 0.163544 0.968143 0.335754
812 1 0.0117031 0.111568 0.236902
813 1 0.32461 0.0136019 0.485202
814 1 0.0570215 0.088028 0.187966
815 1 0.353502 0.0914481 0.382712
816 1 0.211673 0.956928 0.249252
817 1 0.213756 0.0390429 0.256265
818 1 0.41013 0.920515 0.336372
819 1 0.435847 0.923246 0.282077
820 1 0.313077 0.131842 0.367536
821 1 0.546071 0.917509 0.138642
822 1 0.490492 0.0187739 0.313509
823 1 0.552937 0.855645 0.268733
824 1 0.408928 0.0886332 0.366045
825 1 0.554439 0.97867 0.0730626
826 1 0.59774 0.79167 0.152866
827 1 0.879271 0.879305 0.220865
828 1 0.816209 0.0480318 0.152077
829 1 0.839841 0.154891 0.145775
830 1 0.978585 0.834705 0.36734
831 1 0.614035 0.887928 0.987399
832 1 0.563701 0.159419 0.150702
833 1 0.612063 0.540181 0.203287
834 1 0.907158 0.974907 0.100117
835 1 0.951932 0.0259796 0.0979632
836 1 0.829791 0.821514 0.128529
837 1 0.00689163 0.984621 0.0860873
838 1 0.933945 0.284329 0.155539
839 1 0.962692 0.0914714 0.97292
840 1 0.7869 0.0290564 0.301047
841 1 0.0592263 0.152718 0.184106
842 1 0.964724 0.209108 0.944261
843 1 0.0254946 0.0588445 0.292786
844 1 0.0586558 0.132523 0.41229
845 1 0.862838 0.0947317 0.312522
846 1 0.164696 0.364633 0.123959
847 1 0.0815427 0.172248 0.357212
848 1 0.0105863 0.919802 0.332447
849 1 0.961906 0.24558 0.0475776
850 1 0.309165 0.864477 0.0482204
851 1 0.194355 0.0648225 0.520246
852 1 0.286242 0.113318 0.282562
853 1 0.244788 0.0647727 0.0896326
854 1 0.398719 0.141123 0.230843
855 1 0.461942 0.077209 0.0992939
856 1 0.457853 0.196793 0.235337
857 1 0.291627 0.250026 0.433257
858 1 0.372146 0.204286 0.337919
859 1 0.561036 0.925153 0.353145
860 1 0.336413 0.142618 0.453483
861 1 0.638703 0.0946024 0.0343828
862 1 0.647879 0.0455189 0.4591
863 1 0.467818 0.973254 0.336904
864 1 0.506349 0.118697 0.263179
865 1 0.40596 0.0725954 0.119804
866 1 0.675375 0.079778 0.175624
867 1 0.65935 0.766488 0.167934
868 1 0.758176 0.325085 0.131275
869 1 0.708789 0.182398 0.219861
870 1 0.629775 0.00814313 0.177062
871 1 0.709636 0.192579 0.148555
872 1 0.853109 0.0121473 0.270027
873 1 0.110227 0.986919 0.173258
874 1 0.955391 0.154287 0.0696365
875 1 0.63083 0.837512 0.198218
876 1 0.759541 0.957859 0.0687864
877 1 0.639513 0.230164 0.258738
878 1 0.0633826 0.111301 0.123694
879 1 0.116483 0.126812 0.235375
880 1 0.758107 0.0363543 0.410899
881 1 0.044726 0.0127073 0.503773
882 1 0.738721 0.278359 0.230982
883 1 0.0612721 0.114135 0.302351
884 1 0.124897 0.230791 0.181102
885 1 0.120239 0.376564 0.238268
886 1 0.785182 0.192029 0.323944
887 1 0.113476 0.0519324 0.268018
888 1 0.106245 0.251262 0.288348
889 1 0.127758 0.287601 0.153108
890 1 0.903403 0.272386 0.0672841
891 1 0.226046 0.334318 0.111934
892 1 0.418091 0.252572 0.0184587
893 1 0.204867 0.0880298 0.140801
894 1 0.420016 0.482306 0.234635
895 1 0.496806 0.19087 0.396589
896 1 0.150292 0.341847 0.194882
897 1 0.488239 0.0737063 0.223305
898 1 0.410899 0.257874 0.248523
899 1 0.380281 0.974266 0.156484