ITEM: TIMESTEP
9500
ITEM: NUMBER OF ATOMS
4000
ITEM: BOX BOUNDS pp pp pp
0.0000000000000000e+00 1.6795961913825074e+01
0.0000000000000000e+00 1.6795961913825074e+01
0.0000000000000000e+00 1.6795961913825074e+01
ITEM: ATOMS id type xs ys zs
1 1 0.00378501 0.00418209 0.997948
2 1 0.0560861 0.0504716 1.00069
3 1 0.051978 0.000976723 0.0509223
4 1 0.0047701 0.0503404 0.0505605
5 1 0.102782 0.00089514 0.00076903
6 1 0.147322 0.0493983 0.00302653
7 1 0.147623 0.00179627 0.0492236
8 1 0.0995765 0.0497986 0.0555185
9 1 0.19867 0.00104892 -0.000252585
10 1 0.249539 0.0513535 -0.00036836
11 1 0.251275 0.99615 0.0530776
12 1 0.199355 0.048019 0.0525094
13 1 0.301338 1.00003 0.000458167
14 1 0.350102 0.0474104 0.999961
15 1 0.352618 1.00054 0.0483584
16 1 0.297559 0.0461566 0.0532397
17 1 0.398714 0.999619 0.998519
18 1 0.450785 0.0511649 -0.0021994
19 1 0.451128 0.999297 0.0455177
20 1 0.398145 0.050488 0.0492484
21 1 0.500966 0.99841 -0.00138291
22 1 0.550997 0.0473453 0.9988
23 1 0.546921 0.0011929 0.049661
24 1 0.497353 0.0510026 0.0505122
25 1 0.597904 0.998984 0.999088
26 1 0.646471 0.0533632 -0.000833443
27 1 0.647732 1.00103 0.0482058
28 1 0.598653 0.0441893 0.0493312
29 1 0.696053 0.00246048 -0.000659767
30 1 0.749854 0.0529112 -0.00380945
31 1 0.750075 0.00276682 0.0458391
32 1 0.699978 0.0518961 0.0514105
33 1 0.79665 1.00209 0.00028959
34 1 0.848926 0.0512289 3.43175e-06
35 1 0.849377 0.00506847 0.0487417
36 1 0.800133 0.0549751 0.0462776
37 1 0.900713 -0.000468916 0.00136925
38 1 0.951151 0.0524481 0.999888
39 1 0.949505 0.00271951 0.0533182
40 1 0.900783 0.0490582 0.0513148
41 1 0.0041402 0.100186 -0.0011626
42 1 0.0491243 0.151798 0.999474
43 1 0.0528209 0.0990382 0.049178
44 1 -0.000222655 0.148373 0.0449239
45 1 0.10353 0.102012 0.999807
46 1 0.150569 0.147624 0.998318
47 1 0.153894 0.100682 0.053828
48 1 0.102003 0.1506 0.0499343
49 1 0.200298 0.0952083 0.00257407
50 1 0.25199 0.14768 6.09239e-05
51 1 0.249213 0.0965941 0.0517242
52 1 0.201111 0.14997 0.050604
53 1 0.300574 0.0980497 0.000478492
54 1 0.351532 0.149682 1.00208
55 1 0.348397 0.0985488 0.0493822
56 1 0.298311 0.152059 0.0533526
57 1 0.39871 0.102724 0.000536529
58 1 0.453243 0.148386 0.998982
59 1 0.449895 0.100319 0.0475759
60 1 0.401834 0.151666 0.0481791
61 1 0.49953 0.0995433 -0.00155632
62 1 0.546974 0.152318 0.00300227
63 1 0.555777 0.100195 0.0486439
64 1 0.499574 0.148087 0.0493442
65 1 0.600163 0.104647 0.99707
66 1 0.649314 0.15195 1.00072
67 1 0.648477 0.0970002 0.0494577
68 1 0.601972 0.151725 0.0501604
69 1 0.698647 0.100248 -0.000306567
70 1 0.746751 0.150956 0.997484
71 1 0.746356 0.0994268 0.0474902
72 1 0.696378 0.149561 0.0501984
73 1 0.801801 0.102907 0.996716
74 1 0.849493 0.150777 -0.000395962
75 1 0.850089 0.101055 0.0488462
76 1 0.799692 0.146233 0.0470603
77 1 0.902156 0.0984588 0.00121654
78 1 0.948106 0.14837 4.32242e-05
79 1 0.952683 0.0962886 0.0536618
80 1 0.898597 0.148398 0.0489384
81 1 0.99786 0.200264 0.998354
82 1 0.0537002 0.251633 0.000997855
83 1 0.0522066 0.199676 0.0503954
84 1 0.9986 0.248247 0.0514819
85 1 0.10448 0.199334 0.998144
86 1 0.152824 0.250193 0.995685
87 1 0.149798 0.19987 0.0523198
88 1 0.103921 0.250807 0.0502877
89 1 0.201616 0.200142 1.00009
90 1 0.25478 0.247959 0.999222
91 1 0.250169 0.20205 0.0534532
92 1 0.200841 0.25109 0.0504993
93 1 0.301721 0.199355 -0.0033907
94 1 0.350421 0.248602 0.00135588
95 1 0.352723 0.199884 0.0491998
96 1 0.297987 0.250606 0.0518381
97 1 0.401627 0.201884 0.999029
98 1 0.449169 0.24868 -0.000287266
99 1 0.453439 0.199851 0.0476
100 1 0.401818 0.249077 0.0491387
101 1 0.501758 0.198082 0.997993
102 1 0.550274 0.247304 0.00168887
103 1 0.551088 0.197331 0.0498833
104 1 0.499804 0.246922 0.0504103
105 1 0.597417 0.197407 -0.000703632
106 1 0.647391 0.25112 0.998421
107 1 0.650018 0.20138 0.0502087
108 1 0.6025 0.251356 0.0511996
109 1 0.697715 0.200298 1.00198
110 1 0.749811 0.248244 0.000358754
111 1 0.749287 0.193605 0.049015
112 1 0.700715 0.246945 0.0478013
113 1 0.795599 0.197357 0.0023871
114 1 0.84784 0.252017 0.997762
115 1 0.845289 0.199826 0.0497511
116 1 0.796008 0.24883 0.0458732
117 1 0.896335 0.20093 1.00174
118 1 0.946461 0.249186 1.0018
119 1 0.948896 0.201125 0.0507713
120 1 0.89536 0.249885 0.0476428
121 1 1.0013 0.304479 0.998
122 1 0.0521703 0.352765 1.00257
123 1 0.0481179 0.303532 0.0474468
124 1 0.999663 0.348369 0.0488007
125 1 0.101004 0.300273 -0.00144612
126 1 0.152892 0.348902 0.996564
127 1 0.15165 0.296553 0.0482536
128 1 0.102541 0.34676 0.0503024
129 1 0.202714 0.296281 0.997308
130 1 0.249431 0.347996 0.998586
131 1 0.24882 0.298806 0.0490119
132 1 0.200062 0.347922 0.0496563
133 1 0.299254 0.302354 0.999309
134 1 0.352056 0.35105 0.00109275
135 1 0.350566 0.299058 0.0515862
136 1 0.301693 0.347486 0.0497381
137 1 0.403512 0.301504 0.00234973
138 1 0.449802 0.349809 -0.000147304
139 1 0.453125 0.296079 0.0520428
140 1 0.400252 0.349609 0.0494179
141 1 0.498975 0.297299 1.00117
142 1 0.549612 0.349398 9.01492e-05
143 1 0.550903 0.297645 0.0491507
144 1 0.502112 0.347246 0.0480908
145 1 0.599107 0.300613 0.00269062
146 1 0.649316 0.348295 -0.000867975
147 1 0.65298 0.30041 0.0499623
148 1 0.601143 0.351669 0.0503298
149 1 0.699177 0.296796 0.999659
150 1 0.748142 0.352688 -0.00204011
151 1 0.747933 0.302585 0.0449161
152 1 0.699461 0.348488 0.0521212
153 1 0.801199 0.30018 0.998497
154 1 0.849967 0.352179 0.99789
155 1 0.849044 0.302296 0.0508664
156 1 0.79709 0.352544 0.0489487
157 1 0.897983 0.299609 0.000298919
158 1 0.94731 0.350783 0.996751
159 1 0.947398 0.300738 0.0493958
160 1 0.898636 0.350908 0.0516544
161 1 -0.000783986 0.39897 0.000111249
162 1 0.0515092 0.449967 0.00323833
163 1 0.0515212 0.400494 0.0512688
164 1 0.00145542 0.450523 0.0488469
165 1 0.100159 0.399204 0.99818
166 1 0.150114 0.448594 0.997633
167 1 0.150059 0.397218 0.0480313
168 1 0.103098 0.447042 0.0478149
169 1 0.200975 0.397027 0.999749
170 1 0.25006 0.44957 0.998745
171 1 0.252445 0.395202 0.0487333
172 1 0.200169 0.451257 0.0453486
173 1 0.301355 0.395509 0.995014
174 1 0.348628 0.449065 1.00116
175 1 0.34624 0.400921 0.0505393
176 1 0.299426 0.449308 0.0485935
177 1 0.400648 0.398964 0.000355268
178 1 0.452329 0.449179 0.999386
179 1 0.451922 0.401114 0.0502066
180 1 0.402368 0.447297 0.0500302
181 1 0.499833 0.400633 -4.80854e-05
182 1 0.54872 0.452495 1.00077
183 1 0.5491 0.399911 0.0474689
184 1 0.497551 0.452294 0.0489912
185 1 0.602032 0.401558 0.00191878
186 1 0.65327 0.448951 0.00279816
187 1 0.654426 0.398491 0.0493028
188 1 0.598763 0.451109 0.0483175
189 1 0.701993 0.40117 -5.36733e-06
190 1 0.752239 0.449549 0.00159389
191 1 0.748636 0.402712 0.0524351
192 1 0.70041 0.451626 0.0482437
193 1 0.800452 0.398472 0.998623
194 1 0.851561 0.44983 0.995959
195 1 0.848156 0.401408 0.0511552
196 1 0.797713 0.44937 0.0524663
197 1 0.900859 0.398691 0.99728
198 1 0.95387 0.452479 -0.000244147
199 1 0.952789 0.400272 0.0484664
200 1 0.900284 0.453395 0.0497791
201 1 0.000141212 0.502163 0.00364699
202 1 0.0500412 0.54809 0.997797
203 1 0.0567165 0.499312 0.0514789
204 1 -3.07058e-05 0.551883 0.0491714
205 1 0.101846 0.500487 0.000115162
206 1 0.150901 0.551996 0.00116961
207 1 0.152702 0.49941 0.0502763
208 1 0.103296 0.548199 0.0500558
209 1 0.201421 0.500052 0.999544
210 1 0.250824 0.550541 0.99575
211 1 0.251927 0.500131 0.0489496
212 1 0.200603 0.548417 0.0499288
213 1 0.300938 0.500545 -0.00136492
214 1 0.347891 0.550123 0.999168
215 1 0.350826 0.500871 0.0481759
216 1 0.303233 0.548572 0.0454732
217 1 0.399396 0.50181 1.00107
218 1 0.448902 0.551464 0.998861
219 1 0.451088 0.502539 0.0467628
220 1 0.39803 0.551191 0.0511808
221 1 0.500483 0.501954 0.997947
222 1 0.550067 0.55205 0.999132
223 1 0.547674 0.501594 0.047966
224 1 0.501884 0.551039 0.0495502
225 1 0.599599 0.500897 0.000368726
226 1 0.652824 0.551763 0.997177
227 1 0.650723 0.500089 0.0493668
228 1 0.602069 0.550449 0.0482175
229 1 0.700091 0.498376 1.0003
230 1 0.748304 0.549077 0.998266
231 1 0.749259 0.498102 0.0495504
232 1 0.696074 0.547839 0.0496232
233 1 0.801616 0.500671 0.999987
234 1 0.852635 0.548246 0.999859
235 1 0.849116 0.498111 0.04795
236 1 0.798645 0.549028 0.0477004
237 1 0.903212 0.500097 0.997962
238 1 0.950038 0.549376 1.00026
239 1 0.948748 0.502494 0.0509131
240 1 0.898215 0.551024 0.0478852
241 1 1.00086 0.59809 0.995896
242 1 0.0500069 0.650603 -0.000310936
243 1 0.0508244 0.599755 0.0509794
244 1 0.000837624 0.647925 0.0496568
245 1 0.0998351 0.597694 0.000240643
246 1 0.147075 0.651946 1.00017
247 1 0.148866 0.598549 0.0503343
248 1 0.097256 0.652401 0.0496777
249 1 0.198104 0.599562 1.00118
250 1 0.250071 0.651223 0.999404
251 1 0.248945 0.600508 0.0488441
252 1 0.19869 0.648603 0.0455537
253 1 0.298841 0.60383 -0.00343514
254 1 0.349409 0.648721 0.998837
255 1 0.349476 0.598841 0.0491957
256 1 0.301616 0.650954 0.0480029
257 1 0.399951 0.60116 -0.00152582
258 1 0.45145 0.652164 0.999074
259 1 0.448993 0.601606 0.0471266
260 1 0.398929 0.64865 0.0507209
261 1 0.502731 0.597823 1.00011
262 1 0.549884 0.646493 0.998414
263 1 0.54764 0.600317 0.050039
264 1 0.497424 0.649585 0.0514635
265 1 0.602922 0.599424 0.997081
266 1 0.647034 0.651882 0.996662
267 1 0.649007 0.59991 0.0476493
268 1 0.601582 0.64779 0.0478013
269 1 0.698984 0.601997 0.9958
270 1 0.749144 0.64852 0.996078
271 1 0.751617 0.599259 0.0468885
272 1 0.699567 0.64781 0.0487398
273 1 0.800834 0.598348 0.995788
274 1 0.851127 0.648891 0.997956
275 1 0.84934 0.600953 0.0513369
276 1 0.800886 0.649115 0.0481181
277 1 0.901026 0.598102 0.998207
278 1 0.953834 0.646722 -0.00157907
279 1 0.952671 0.599544 0.050606
280 1 0.898903 0.644788 0.0465732
281 1 0.998459 0.699097 0.000525296
282 1 0.0456536 0.749459 0.00630358
283 1 0.0454159 0.695633 0.0525674
284 1 0.9968 0.749154 0.0509163
285 1 0.100965 0.700794 -0.000939543
286 1 0.148607 0.749957 -0.000437011
287 1 0.153359 0.700966 0.0478716
288 1 0.0961479 0.748152 0.0521378
289 1 0.200041 0.699866 0.997909
290 1 0.249419 0.751489 0.00157853
291 1 0.249284 0.700615 0.0470325
292 1 0.200207 0.752101 0.0487942
293 1 0.2999 0.697927 0.999475
294 1 0.350392 0.750977 -0.00156466
295 1 0.353166 0.697797 0.0472713
296 1 0.29902 0.74978 0.0483244
297 1 0.401372 0.700438 0.998576
298 1 0.453587 0.749442 -0.00132259
299 1 0.447987 0.700069 0.0493161
300 1 0.401733 0.752617 0.047381
301 1 0.498517 0.699201 0.999633
302 1 0.547755 0.749421 -0.000555044
303 1 0.551911 0.698435 0.0476866
304 1 0.500362 0.74896 0.0496393
305 1 0.598698 0.700247 0.999844
306 1 0.646936 0.748087 0.996598
307 1 0.646992 0.69962 0.048
308 1 0.600854 0.748132 0.0478373
309 1 0.696568 0.697007 -0.000196232
310 1 0.748506 0.75154 0.997667
311 1 0.748531 0.696853 0.0484625
312 1 0.698989 0.74747 0.0494462
313 1 0.797011 0.698278 -0.00286845
314 1 0.848649 0.749004 0.998362
315 1 0.851173 0.697709 0.0463494
316 1 0.797455 0.75053 0.0469428
317 1 0.901603 0.698342 0.999314
318 1 0.94911 0.749822 0.998684
319 1 0.948761 0.697789 0.0521851
320 1 0.900471 0.747814 0.0487047
321 1 0.998747 0.799376 -0.000893559
322 1 0.0495524 0.849962 0.997442
323 1 0.0501608 0.798843 0.0526385
324 1 0.998097 0.85112 0.0515485
325 1 0.0968494 0.803552 0.00346141
326 1 0.150223 0.85085 0.00425039
327 1 0.148862 0.799844 0.0509939
328 1 0.0973308 0.849509 0.0525553
329 1 0.198733 0.800416 0.999421
330 1 0.250153 0.85051 1.00036
331 1 0.251175 0.799772 0.0496932
332 1 0.197628 0.849905 0.0513304
333 1 0.30014 0.803416 -0.000947298
334 1 0.352564 0.854352 1.00002
335 1 0.351066 0.798125 0.0516521
336 1 0.300705 0.85235 0.0519267
337 1 0.396613 0.800325 -0.000191733
338 1 0.447621 0.847725 1.0008
339 1 0.449285 0.799743 0.0492807
340 1 0.398878 0.850267 0.0508296
341 1 0.498588 0.799629 0.999162
342 1 0.547845 0.850735 0.999183
343 1 0.547033 0.804751 0.0491255
344 1 0.497218 0.847946 0.0486411
345 1 0.597268 0.799725 0.999567
346 1 0.647253 0.849588 0.998868
347 1 0.650644 0.802506 0.0503877
348 1 0.600886 0.849628 0.0507685
349 1 0.698153 0.798022 -0.00104948
350 1 0.748673 0.849638 0.998379
351 1 0.750505 0.801024 0.0511153
352 1 0.701356 0.853795 0.0488941
353 1 0.799943 0.801178 0.998205
354 1 0.850171 0.849168 0.99623
355 1 0.848196 0.800749 0.04909
356 1 0.800366 0.849516 0.0502232
357 1 0.899732 0.801431 1.0013
358 1 0.949193 0.846613 0.00174345
359 1 0.949283 0.798062 0.048075
360 1 0.893379 0.850776 0.0479427
361 1 1.00073 0.896413 0.997135
362 1 0.0511165 0.95161 0.00294347
363 1 0.0502818 0.900295 0.0489858
364 1 0.000549109 0.951293 0.0494553
365 1 0.0988855 0.90083 1.00049
366 1 0.150751 0.949976 0.000696879
367 1 0.147059 0.90134 0.0497121
368 1 0.0970014 0.948793 0.0502924
369 1 0.199906 0.898763 0.000796796
370 1 0.250263 0.949746 0.00139092
371 1 0.246971 0.899404 0.0520328
372 1 0.199304 0.952341 0.0498206
373 1 0.300601 0.898854 0.0061026
374 1 0.349859 0.949582 0.999083
375 1 0.351192 0.901335 0.0491388
376 1 0.298134 0.945505 0.0521596
377 1 0.405554 0.901888 0.998329
378 1 0.451554 0.950656 0.99818
379 1 0.45142 0.90046 0.0495847
380 1 0.403405 0.952014 0.0516371
381 1 0.500791 0.899223 0.999749
382 1 0.548885 0.951949 0.996798
383 1 0.549668 0.901088 0.0461805
384 1 0.497312 0.94925 0.050896
385 1 0.599613 0.901393 0.999302
386 1 0.644922 0.950275 1.00004
387 1 0.646166 0.898809 0.0459574
388 1 0.59778 0.950301 0.0509073
389 1 0.696892 0.901746 0.99849
390 1 0.748244 0.950129 1.00123
391 1 0.7509 0.900692 0.04525
392 1 0.699586 0.948387 0.0454944
393 1 0.797991 0.900001 0.998885
394 1 0.848042 0.948554 1.00097
395 1 0.847021 0.901085 0.0476696
396 1 0.802948 0.952479 0.0496567
397 1 0.9021 0.900555 0.000744495
398 1 0.9501 0.950863 -0.000283752
399 1 0.951104 0.901976 0.0487977
400 1 0.897821 0.948801 0.0494219
401 1 0.00045112 0.000799115 0.0992905
402 1 0.0498719 0.0508338 0.101419
403 1 0.0480149 1.00126 0.149115
404 1 0.0020502 0.0501872 0.151535
405 1 0.101372 0.999916 0.100052
406 1 0.151008 0.0503436 0.104367
407 1 0.152539 1.0004 0.152887
408 1 0.102554 0.0479174 0.148736
409 1 0.200232 1.00056 0.102199
410 1 0.249353 0.0495603 0.102924
411 1 0.249336 -0.000395069 0.150192
412 1 0.20214 0.0502683 0.150427
413 1 0.300387 0.996965 0.0977741
414 1 0.349393 0.0479147 0.100284
415 1 0.348264 0.99959 0.147359
416 1 0.300093 0.0476082 0.146871
417 1 0.400958 -0.000421761 0.103001
418 1 0.446514 0.0489594 0.0962617
419 1 0.449349 1.00164 0.151863
420 1 0.401571 0.052476 0.14918
421 1 0.498039 0.000360967 0.0948653
422 1 0.546858 0.0489475 0.0963688
423 1 0.549644 0.00314129 0.148278
424 1 0.498993 0.0508051 0.150055
425 1 0.599636 -0.000659055 0.101806
426 1 0.653358 0.0454866 0.101578
427 1 0.647714 0.999432 0.152656
428 1 0.60356 0.0520746 0.14994
429 1 0.699657 0.99627 0.0969201
430 1 0.749429 0.0500709 0.0992446
431 1 0.751198 0.996482 0.149124
432 1 0.702422 0.0455877 0.149363
433 1 0.798258 0.00333091 0.0944976
434 1 0.849226 0.0488731 0.0990092
435 1 0.851413 0.998723 0.150277
436 1 0.799608 0.0492418 0.149575
437 1 0.900482 0.00147503 0.100863
438 1 0.954081 0.0507806 0.102833
439 1 0.950769 0.000527144 0.148764
440 1 0.899993 0.0486136 0.146968
441 1 0.00363585 0.100752 0.0968618
442 1 0.0516025 0.148881 0.100008
443 1 0.0514579 0.10011 0.151379
444 1 0.999882 0.147252 0.153053
445 1 0.0993456 0.101901 0.102452
446 1 0.152841 0.150242 0.10155
447 1 0.15271 0.101021 0.149794
448 1 0.102124 0.149581 0.150182
449 1 0.200218 0.100121 0.100967
450 1 0.245789 0.151027 0.101827
451 1 0.249315 0.0989122 0.152246
452 1 0.201574 0.1489 0.152071
453 1 0.296938 0.0983262 0.102042
454 1 0.34905 0.151026 0.0993147
455 1 0.346276 0.101791 0.14776
456 1 0.296741 0.150076 0.148823
457 1 0.398572 0.102896 0.0997241
458 1 0.449097 0.148766 0.0945448
459 1 0.450612 0.100265 0.146911
460 1 0.395245 0.146868 0.150161
461 1 0.501089 0.101741 0.0968037
462 1 0.550065 0.147909 0.100015
463 1 0.550781 0.0974108 0.15074
464 1 0.502616 0.147369 0.151653
465 1 0.600492 0.101483 0.10027
466 1 0.648447 0.146361 0.0995487
467 1 0.654305 0.0996979 0.152647
468 1 0.599615 0.148574 0.152017
469 1 0.699345 0.096956 0.102542
470 1 0.744826 0.147016 0.0984725
471 1 0.749419 0.100226 0.151408
472 1 0.696287 0.151939 0.149408
473 1 0.795596 0.0978011 0.103006
474 1 0.844932 0.150506 0.0963927
475 1 0.85068 0.10027 0.147092
476 1 0.797192 0.148285 0.145478
477 1 0.901239 0.10363 0.100273
478 1 0.95229 0.147959 0.0997666
479 1 0.953026 0.100412 0.153365
480 1 0.901079 0.147059 0.150876
481 1 0.998891 0.200037 0.100326
482 1 0.0538249 0.251082 0.0997512
483 1 0.048304 0.201956 0.150637
484 1 1.00064 0.252445 0.150143
485 1 0.100117 0.197564 0.101934
486 1 0.149727 0.248876 0.0993382
487 1 0.149792 0.199629 0.149596
488 1 0.100795 0.250965 0.148775
489 1 0.198667 0.202252 0.101051
490 1 0.250004 0.249256 0.104446
491 1 0.249325 0.199996 0.150423
492 1 0.198253 0.249232 0.150849
493 1 0.300901 0.201974 0.101498
494 1 0.348863 0.251567 0.0992005
495 1 0.350101 0.201442 0.151172
496 1 0.297898 0.250987 0.148721
497 1 0.399372 0.199966 0.0995688
498 1 0.453914 0.249301 0.10161
499 1 0.453803 0.198301 0.149983
500 1 0.400901 0.249223 0.150269
501 1 0.503177 0.199264 0.102143
502 1 0.554298 0.248204 0.103015
503 1 0.551966 0.196219 0.15189
504 1 0.502487 0.247219 0.150184
505 1 0.599619 0.196591 0.100387
506 1 0.65067 0.246538 0.10031
507 1 0.646706 0.198921 0.149897
508 1 0.600456 0.248833 0.149952
509 1 0.698326 0.200238 0.0982304
510 1 0.749972 0.250636 0.097862
511 1 0.747213 0.200304 0.151427
512 1 0.701037 0.249653 0.150595
513 1 0.795141 0.199176 0.0984705
514 1 0.847677 0.244007 0.101672
515 1 0.848067 0.197732 0.149506
516 1 0.798675 0.247611 0.147139
517 1 0.900563 0.196359 0.0989104
518 1 0.947011 0.2496 0.0957413
519 1 0.948407 0.200692 0.155363
520 1 0.899187 0.247416 0.147698
521 1 0.0042495 0.2961 0.0970732
522 1 0.0503596 0.352164 0.0997328
523 1 0.048756 0.300386 0.153037
524 1 0.00377986 0.353755 0.153568
525 1 0.0993836 0.302446 0.102916
526 1 0.1525 0.350482 0.0960046
527 1 0.151886 0.301849 0.146796
528 1 0.103726 0.353142 0.148155
529 1 0.203092 0.300078 0.101681
530 1 0.249995 0.349618 0.0998697
531 1 0.251065 0.303591 0.150503
532 1 0.198168 0.352222 0.147651
533 1 0.297841 0.299894 0.0992923
534 1 0.350362 0.349939 0.0994055
535 1 0.352042 0.298808 0.148739
536 1 0.29937 0.348337 0.150265
537 1 0.403122 0.297416 0.0982334
538 1 0.449574 0.347662 0.0965768
539 1 0.450348 0.297072 0.147955
540 1 0.398956 0.34921 0.149969
541 1 0.501549 0.300022 0.0985719
542 1 0.55014 0.350382 0.097986
543 1 0.547893 0.299161 0.147151
544 1 0.502067 0.347915 0.148027
545 1 0.604453 0.300025 0.0999474
546 1 0.651105 0.347786 0.100043
547 1 0.649222 0.296599 0.149535
548 1 0.598791 0.349729 0.146665
549 1 0.699432 0.298629 0.0991108
550 1 0.749401 0.350924 0.102266
551 1 0.751701 0.299626 0.148582
552 1 0.699092 0.345417 0.147024
553 1 0.798037 0.300237 0.100747
554 1 0.846874 0.351179 0.102966
555 1 0.848078 0.299941 0.148555
556 1 0.798709 0.350048 0.149779
557 1 0.896436 0.296185 0.0999818
558 1 0.949628 0.352097 0.0978932
559 1 0.949977 0.302443 0.151853
560 1 0.901927 0.353346 0.148697
561 1 0.999492 0.403583 0.100201
562 1 0.0513845 0.45073 0.0982719
563 1 0.0511789 0.402896 0.150211
564 1 -0.00142514 0.450709 0.149481
565 1 0.10257 0.398298 0.0989128
566 1 0.148206 0.446366 0.0983355
567 1 0.151662 0.401063 0.149124
568 1 0.0989599 0.448557 0.147805
569 1 0.199119 0.401881 0.0963617
570 1 0.254274 0.448008 0.10114
571 1 0.249537 0.400191 0.148023
572 1 0.202499 0.451495 0.15193
573 1 0.300909 0.400289 0.101435
574 1 0.349045 0.451097 0.0970804
575 1 0.351173 0.396724 0.150263
576 1 0.302835 0.446323 0.150556
577 1 0.402002 0.396012 0.0972487
578 1 0.451231 0.4505 0.100698
579 1 0.454198 0.396663 0.148995
580 1 0.399316 0.445494 0.149378
581 1 0.502036 0.401466 0.0959163
582 1 0.548381 0.45072 0.0955751
583 1 0.547088 0.3967 0.149465
584 1 0.5033 0.451203 0.151032
585 1 0.600518 0.39744 0.0965453
586 1 0.648666 0.44784 0.0963957
587 1 0.650042 0.399285 0.144229
588 1 0.602158 0.449956 0.145612
589 1 0.699085 0.400253 0.0984034
590 1 0.748717 0.451709 0.099442
591 1 0.749923 0.404067 0.148302
592 1 0.700814 0.449267 0.147025
593 1 0.798749 0.398087 0.100225
594 1 0.849514 0.452253 0.0986666
595 1 0.847411 0.401383 0.149707
596 1 0.799394 0.450918 0.148742
597 1 0.898349 0.400203 0.0996453
598 1 0.946796 0.448385 0.099929
599 1 0.950721 0.400055 0.150938
600 1 0.898498 0.450579 0.15224
601 1 0.00204238 0.499592 0.0972886
602 1 0.0511898 0.54786 0.0963259
603 1 0.0487804 0.502189 0.144257
604 1 0.00195344 0.548603 0.144857
605 1 0.10288 0.497152 0.0985599
606 1 0.152728 0.550486 0.0990665
607 1 0.154724 0.499344 0.145913
608 1 0.100363 0.547923 0.146157
609 1 0.205256 0.497363 0.0974053
610 1 0.251044 0.549628 0.0973555
611 1 0.251888 0.500879 0.149795
612 1 0.200984 0.550285 0.148613
613 1 0.299802 0.498883 0.0990736
614 1 0.351451 0.546913 0.101038
615 1 0.350038 0.496921 0.149663
616 1 0.300159 0.546525 0.154384
617 1 0.403614 0.498555 0.0993567
618 1 0.448789 0.551582 0.0976264
619 1 0.450851 0.499576 0.149421
620 1 0.399143 0.546705 0.151665
621 1 0.504338 0.503824 0.0976868
622 1 0.551116 0.550601 0.098884
623 1 0.550756 0.50146 0.147202
624 1 0.498321 0.552497 0.149877
625 1 0.59791 0.504167 0.0994245
626 1 0.651519 0.550557 0.0966915
627 1 0.648655 0.500559 0.143019
628 1 0.598434 0.550234 0.151803
629 1 0.700133 0.501278 0.0968554
630 1 0.745576 0.551236 0.0985543
631 1 0.750301 0.499032 0.15138
632 1 0.697779 0.54831 0.150683
633 1 0.799363 0.500113 0.103923
634 1 0.850016 0.5481 0.0965204
635 1 0.851872 0.49974 0.149451
636 1 0.800383 0.548996 0.14606
637 1 0.899067 0.501487 0.101413
638 1 0.949922 0.5494 0.0986276
639 1 0.951433 0.499966 0.150618
640 1 0.899275 0.54894 0.151327
641 1 0.00417801 0.599425 0.0988196
642 1 0.048509 0.650201 0.100935
643 1 0.0502825 0.596831 0.148559
644 1 0.997877 0.646191 0.149383
645 1 0.0996678 0.599353 0.0970204
646 1 0.146951 0.65142 0.0987453
647 1 0.148952 0.599596 0.152067
648 1 0.0997114 0.647892 0.152048
649 1 0.199085 0.60123 0.0994436
650 1 0.252852 0.653548 0.0997711
651 1 0.253183 0.596355 0.148021
652 1 0.197283 0.652566 0.14919
653 1 0.300383 0.597834 0.0942699
654 1 0.349831 0.647857 0.0975518
655 1 0.34743 0.602403 0.142295
656 1 0.299043 0.648413 0.15017
657 1 0.400656 0.600292 0.0995271
658 1 0.447693 0.651607 0.0992365
659 1 0.448224 0.601527 0.152128
660 1 0.399421 0.649188 0.150216
661 1 0.500135 0.601367 0.100113
662 1 0.549677 0.650768 0.100652
663 1 0.551805 0.601227 0.151107
664 1 0.497949 0.650568 0.150494
665 1 0.602601 0.597808 0.0980842
666 1 0.650646 0.645825 0.100746
667 1 0.652149 0.597919 0.152559
668 1 0.603141 0.646945 0.148989
669 1 0.698892 0.601197 0.0967606
670 1 0.750033 0.646341 0.0991049
671 1 0.748555 0.598467 0.148431
672 1 0.700073 0.648285 0.149365
673 1 0.80047 0.598841 0.0990219
674 1 0.846602 0.652763 0.0976446
675 1 0.849923 0.599242 0.151847
676 1 0.80138 0.648864 0.148698
677 1 0.900573 0.597323 0.100755
678 1 0.950975 0.649337 0.0991228
679 1 0.948005 0.598795 0.147421
680 1 0.900381 0.64877 0.150111
681 1 0.998456 0.698163 0.103958
682 1 0.0477744 0.746107 0.10143
683 1 0.0487824 0.697288 0.148124
684 1 0.998751 0.749323 0.146751
685 1 0.0979011 0.69846 0.0993411
686 1 0.148671 0.745735 0.0971205
687 1 0.146235 0.700915 0.148357
688 1 0.0982197 0.751523 0.150073
689 1 0.200172 0.700781 0.0954817
690 1 0.24786 0.749966 0.098001
691 1 0.248675 0.703565 0.146864
692 1 0.198121 0.752531 0.148583
693 1 0.301241 0.699928 0.0960242
694 1 0.34879 0.748824 0.0981441
695 1 0.352849 0.700974 0.144599
696 1 0.299204 0.751036 0.14808
697 1 0.400861 0.701142 0.0993288
698 1 0.450177 0.749733 0.100765
699 1 0.450863 0.701012 0.152324
700 1 0.402664 0.749406 0.149434
701 1 0.497948 0.697361 0.0959396
702 1 0.552572 0.748799 0.0940357
703 1 0.552623 0.695738 0.148346
704 1 0.500352 0.749751 0.147968
705 1 0.600516 0.697516 0.0970294
706 1 0.651824 0.748101 0.100616
707 1 0.646742 0.696963 0.148851
708 1 0.598576 0.752999 0.147306
709 1 0.700666 0.697595 0.101151
710 1 0.749713 0.749616 0.0991477
711 1 0.752839 0.698319 0.147688
712 1 0.701746 0.749584 0.149597
713 1 0.800278 0.700992 0.0999103
714 1 0.848604 0.748122 0.0967804
715 1 0.849336 0.69734 0.149582
716 1 0.801116 0.750118 0.148579
717 1 0.897633 0.696302 0.100786
718 1 0.946003 0.748684 0.100433
719 1 0.94532 0.699989 0.147588
720 1 0.897789 0.747035 0.147972
721 1 0.998598 0.799316 0.0978705
722 1 0.0461388 0.848867 0.100425
723 1 0.0488946 0.796491 0.149812
724 1 0.997293 0.851009 0.147605
725 1 0.100534 0.800779 0.100121
726 1 0.147053 0.84981 0.100831
727 1 0.148835 0.800942 0.152079
728 1 0.0960644 0.848582 0.148811
729 1 0.204022 0.802511 0.101163
730 1 0.252073 0.852567 0.101482
731 1 0.247569 0.799413 0.151339
732 1 0.200712 0.849306 0.147451
733 1 0.297249 0.800317 0.099036
734 1 0.34936 0.849253 0.103674
735 1 0.350361 0.80037 0.146712
736 1 0.296499 0.850891 0.152204
737 1 0.398952 0.799615 0.0995182
738 1 0.44707 0.849619 0.0985168
739 1 0.447295 0.799377 0.147456
740 1 0.402203 0.852775 0.146809
741 1 0.501196 0.798514 0.096285
742 1 0.549168 0.851533 0.101669
743 1 0.548699 0.801297 0.148562
744 1 0.49644 0.848933 0.148889
745 1 0.595711 0.800742 0.0983276
746 1 0.651064 0.851419 0.100028
747 1 0.651015 0.799933 0.14583
748 1 0.60207 0.84813 0.147998
749 1 0.702942 0.801584 0.100933
750 1 0.754273 0.84943 0.0987638
751 1 0.751942 0.803251 0.148821
752 1 0.69934 0.850141 0.152613
753 1 0.80255 0.801335 0.0985397
754 1 0.847288 0.848924 0.102
755 1 0.85052 0.801343 0.151489
756 1 0.799055 0.852747 0.150835
757 1 0.896683 0.797467 0.0980888
758 1 0.944566 0.851106 0.0961915
759 1 0.946436 0.79976 0.148622
760 1 0.900258 0.852554 0.149658
761 1 1.0006 0.896989 0.0991979
762 1 0.0460844 0.947597 0.0980898
763 1 0.0457942 0.896806 0.149856
764 1 0.99957 0.948572 0.148432
765 1 0.095683 0.898635 0.100382
766 1 0.145633 0.947966 0.103616
767 1 0.145562 0.898603 0.149991
768 1 0.09703 0.951305 0.150115
769 1 0.197349 0.899281 0.100314
770 1 0.245633 0.949227 0.101745
771 1 0.247173 0.900598 0.15062
772 1 0.194741 0.950453 0.147614
773 1 0.29941 0.899294 0.102545
774 1 0.349291 0.948518 0.0984373
775 1 0.348203 0.899982 0.151399
776 1 0.297635 0.95046 0.15086
777 1 0.399478 0.900353 0.1003
778 1 0.449376 0.951992 0.101789
779 1 0.448672 0.900443 0.151166
780 1 0.396805 0.950303 0.14838
781 1 0.498154 0.900381 0.101947
782 1 0.550703 0.951698 0.0995004
783 1 0.553194 0.897879 0.150489
784 1 0.498954 0.952438 0.149008
785 1 0.602041 0.89909 0.0983673
786 1 0.650791 0.949947 0.100054
787 1 0.648444 0.899455 0.151062
788 1 0.600683 0.951057 0.14894
789 1 0.70063 0.900383 0.0997474
790 1 0.751968 0.951557 0.0962324
791 1 0.749306 0.900461 0.151792
792 1 0.699532 0.952342 0.151868
793 1 0.798236 0.901066 0.100074
794 1 0.8489 0.952151 0.100666
795 1 0.84901 0.905043 0.147881
796 1 0.800303 0.949152 0.153576
797 1 0.898946 0.901201 0.0975522
798 1 0.949204 0.950946 0.098571
799 1 0.95 0.900509 0.14465
800 1 0.899049 0.947183 0.151474
801 1 0.000402998 0.0013106 0.199033
802 1 0.0505623 0.0524969 0.202396
803 1 0.0513141 0.00205121 0.251032
804 1 -0.000531044 0.047657 0.25446
805 1 0.101217 0.00140618 0.202366
806 1 0.149758 0.0507446 0.200609
807 1 0.152146 0.00232206 0.255066
808 1 0.10311 0.0476084 0.250126
809 1 0.2016 -0.000258512 0.203242
810 1 0.251561 0.047651 0.200186
811 1 0.249261 0.999882 0.253575
812 1 0.203704 0.0519298 0.252085
813 1 0.301515 1.0012 0.199337
814 1 0.350421 0.04751 0.198751
815 1 0.349416 0.00175204 0.24826
816 1 0.298564 0.0473828 0.251443
817 1 0.402081 8.25094e-06 0.196201
818 1 0.45159 0.0528264 0.199027
819 1 0.449665 8.01084e-05 0.254011
820 1 0.398613 0.0521547 0.249013
821 1 0.496849 0.00249101 0.201561
822 1 0.550818 0.0474909 0.198434
823 1 0.551289 0.00181928 0.249463
824 1 0.500728 0.0520664 0.250716
825 1 0.602342 -0.00195931 0.20129
826 1 0.651379 0.0487536 0.19749
827 1 0.646961 0.00118564 0.251473
828 1 0.59981 0.0483154 0.250182
829 1 0.697142 0.997074 0.201241
830 1 0.746492 0.0464873 0.199707
831 1 0.750936 0.999177 0.248787
832 1 0.699975 0.047476 0.250446
833 1 0.800406 0.00186832 0.198563
834 1 0.850229 0.0492148 0.20159
835 1 0.849237 1.00254 0.251116
836 1 0.79929 0.0505734 0.249947
837 1 0.89914 0.999846 0.200059
838 1 0.950267 0.0527479 0.199184
839 1 0.954014 -0.000404219 0.249913
840 1 0.900097 0.0474608 0.249994
841 1 0.000811482 0.0974686 0.200098
842 1 0.0477369 0.150806 0.201119
843 1 0.0505679 0.100236 0.250831
844 1 1.00129 0.148927 0.249014
845 1 0.100549 0.0992961 0.201044
846 1 0.147913 0.14716 0.200811
847 1 0.150178 0.0981712 0.252402
848 1 0.0982314 0.15065 0.249614
849 1 0.201106 0.102253 0.201904
850 1 0.247251 0.151149 0.200305
851 1 0.250919 0.100864 0.247424
852 1 0.200379 0.149874 0.253272
853 1 0.300938 0.0948152 0.199288
854 1 0.345443 0.149257 0.197533
855 1 0.348998 0.10183 0.251464
856 1 0.297806 0.151943 0.251082
857 1 0.398632 0.0988071 0.201434
858 1 0.451152 0.144918 0.197368
859 1 0.451661 0.0987281 0.251044
860 1 0.401624 0.147756 0.252069
861 1 0.501215 0.0987291 0.200683
862 1 0.550404 0.149783 0.206152
863 1 0.54866 0.0999406 0.25074
864 1 0.499224 0.149156 0.2522
865 1 0.598562 0.0971197 0.201588
866 1 0.646914 0.150234 0.200737
867 1 0.649378 0.0993944 0.250614
868 1 0.598783 0.148433 0.253212
869 1 0.69893 0.098346 0.203107
870 1 0.751719 0.149953 0.20114
871 1 0.748576 0.0982656 0.254428
872 1 0.698085 0.150407 0.246937
873 1 0.801624 0.0993262 0.199497
874 1 0.850863 0.149333 0.201979
875 1 0.851412 0.0983371 0.251611
876 1 0.799907 0.149728 0.251747
877 1 0.898461 0.0994265 0.198915
878 1 0.951118 0.148989 0.2032
879 1 0.951918 0.0991411 0.251865
880 1 0.897547 0.148705 0.252694
881 1 1.0019 0.198687 0.204329
882 1 0.050291 0.247197 0.202491
883 1 0.0504548 0.201378 0.253166
884 1 0.00184983 0.250638 0.24941
885 1 0.101614 0.199786 0.197972
886 1 0.151249 0.25017 0.199898
887 1 0.149688 0.200948 0.249645
888 1 0.101393 0.249404 0.249467
889 1 0.204193 0.199745 0.204396