ITEM: TIMESTEP
53600
ITEM: NUMBER OF ATOMS
4000
ITEM: BOX BOUNDS pp pp pp
0.0000000000000000e+00 1.6795961913825074e+01
0.0000000000000000e+00 1.6795961913825074e+01
0.0000000000000000e+00 1.6795961913825074e+01
ITEM: ATOMS id type xs ys zs
1 1 0.163259 0.346274 0.0323098
2 1 0.991403 0.969193 0.840692
3 1 0.948044 0.706755 0.0123388
4 1 0.694921 0.0289624 0.206765
5 1 0.113697 0.943236 0.864187
6 1 0.537368 0.650964 0.827358
7 1 0.0980153 0.595328 0.694102
8 1 0.278537 0.114805 0.32378
9 1 0.463466 0.144041 0.155789
10 1 0.476876 0.25829 0.643302
11 1 0.141045 0.982751 0.131931
12 1 0.278267 0.704318 0.821788
13 1 0.329428 0.985744 0.129761
14 1 0.423848 0.806154 0.868393
15 1 0.644343 0.159396 0.0236304
16 1 0.261152 0.73382 0.995914
17 1 0.6185 0.211051 0.806936
18 1 0.41602 0.994606 0.657152
19 1 0.639133 0.0635398 0.417292
20 1 0.703714 0.187879 0.0247207
21 1 0.473623 0.976757 0.216194
22 1 0.703347 0.252792 0.00631511
23 1 0.736613 0.212182 0.852102
24 1 0.792163 0.0758088 0.0333981
25 1 0.82982 0.802357 0.0456763
26 1 0.644386 0.320824 0.08539
27 1 0.842261 0.99041 0.113137
28 1 0.435168 0.900139 0.783826
29 1 0.16177 0.797394 0.178919
30 1 0.806719 0.899316 0.908461
31 1 0.155129 0.0549437 0.141508
32 1 0.30159 0.0680146 0.020116
33 1 0.915338 0.928003 0.141284
34 1 0.710532 0.12973 0.0500799
35 1 0.0411822 0.807948 0.377575
36 1 0.0158926 0.174347 0.956681
37 1 0.601751 0.530463 0.0596156
38 1 0.475812 0.871629 0.985504
39 1 0.032099 0.140618 0.606996
40 1 0.900293 0.867531 0.0907974
41 1 0.863515 0.123422 0.858764
42 1 0.0528028 0.99917 0.487088
43 1 0.918884 0.252496 0.357766
44 1 0.21312 0.688021 0.262342
45 1 0.0470761 0.921017 0.0765905
46 1 0.685756 0.386855 0.0100027
47 1 0.4122 0.671889 0.382468
48 1 0.015709 0.452787 0.255281
49 1 0.179185 0.324461 0.822777
50 1 0.395508 0.826007 0.233598
51 1 0.424595 0.0152409 0.250708
52 1 0.0695441 0.335584 0.851863
53 1 0.239834 0.231163 0.915506
54 1 0.210842 0.712842 0.920977
55 1 0.672889 0.414986 0.329921
56 1 0.332388 0.177767 0.106089
57 1 0.449015 0.377122 0.284659
58 1 0.706673 0.138518 0.987755
59 1 0.201536 0.278401 0.102085
60 1 0.384486 0.535856 0.165014
61 1 0.531367 0.447091 0.944336
62 1 0.335658 0.193737 0.865852
63 1 0.373545 0.282164 0.964361
64 1 0.394577 0.224693 0.706654
65 1 0.455934 0.232561 0.967013
66 1 0.57865 0.714422 0.230679
67 1 0.271767 0.521333 0.216742
68 1 0.896468 0.508577 0.0329889
69 1 0.381919 0.121868 0.912045
70 1 0.803588 0.07746 0.572804
71 1 0.78779 0.0506372 0.0992292
72 1 0.529641 0.0577661 0.849815
73 1 0.901291 0.129862 0.102727
74 1 0.0733224 0.869298 0.174515
75 1 0.743677 0.691939 0.00288477
76 1 0.731526 0.869352 0.139466
77 1 0.73174 0.0148879 0.0950213
78 1 0.936975 0.774881 0.448249
79 1 0.627123 0.892964 0.0862952
80 1 0.536934 0.383792 0.968366
81 1 0.00826237 0.0471356 0.91923
82 1 0.0490382 0.895303 0.933014
83 1 0.815316 0.937555 0.388804
84 1 0.288364 0.468431 0.191868
85 1 0.958242 0.917821 0.595848
86 1 0.0262137 0.404176 0.825229
87 1 0.595581 0.263334 0.768725
88 1 0.151346 0.0842471 0.961934
89 1 0.547339 0.846523 0.202817
90 1 0.0134526 0.999489 0.980335
91 1 0.947141 0.228775 0.735426
92 1 0.131432 0.507893 0.220084
93 1 0.330236 0.0304308 0.822267
94 1 0.119643 0.968076 0.801061
95 1 0.49309 0.490591 0.850216
96 1 0.504371 0.341322 0.088246
97 1 0.292283 0.150974 0.0669906
98 1 0.683315 0.833467 0.365773
99 1 0.353582 0.931209 0.337055
100 1 0.698578 0.283186 0.723702
101 1 0.577258 0.104794 0.530955
102 1 0.350083 0.976289 0.829632
103 1 0.900345 0.429344 0.0239576
104 1 0.738131 0.187614 0.224693
105 1 0.230607 0.0639989 0.0657076
106 1 0.858148 0.17024 0.757442
107 1 0.651646 0.773726 0.401938
108 1 0.842913 0.176524 0.945144
109 1 0.312909 0.657361 0.433178
110 1 0.476319 0.286887 0.969443
111 1 0.698963 0.712688 0.874458
112 1 0.451415 0.23165 0.039011
113 1 0.104137 0.127902 0.0507536
114 1 0.761433 0.572211 0.446022
115 1 0.704151 0.0692923 0.266186
116 1 0.355047 0.59958 0.453383
117 1 0.158544 0.146333 0.249016
118 1 0.538779 0.118003 0.283679
119 1 0.926799 0.148324 0.34306
120 1 0.64241 0.28381 0.868376
121 1 0.178933 0.498641 0.892039
122 1 0.243956 0.101412 0.767783
123 1 0.116096 0.432738 0.0528135
124 1 0.25206 0.675586 0.872158
125 1 0.264505 0.372488 0.0357434
126 1 0.430158 0.436937 0.362834
127 1 0.767618 0.91343 0.538724
128 1 0.180105 0.479305 0.805482
129 1 0.589176 0.15716 0.648426
130 1 0.703067 0.434672 0.0581282
131 1 0.860986 0.469884 0.727941
132 1 0.408013 0.537877 0.980042
133 1 0.0295421 0.966782 0.670547
134 1 0.978938 0.523438 0.666769
135 1 0.275302 0.410442 0.0845044
136 1 0.405427 0.981691 0.839333
137 1 0.608697 0.168151 0.977862
138 1 0.206964 0.107236 0.944527
139 1 0.66491 0.267293 0.292647
140 1 0.113841 0.27007 0.253691
141 1 0.0839398 0.154209 0.580749
142 1 0.503402 0.381606 0.0128922
143 1 0.434877 0.318511 0.0666185
144 1 0.878185 0.876219 0.406708
145 1 0.942473 0.286641 0.775559
146 1 0.738164 0.601526 0.256776
147 1 0.332558 0.515687 0.0864502
148 1 0.501973 0.305718 0.852814
149 1 0.178608 0.246156 0.151214
150 1 0.732084 0.34621 0.138187
151 1 0.094803 0.223799 0.221364
152 1 0.967016 0.514966 0.972458
153 1 0.0296973 0.736532 0.238288
154 1 0.500196 0.327523 0.780414
155 1 0.776465 0.391694 0.521629
156 1 0.0290402 0.119993 0.94826
157 1 0.849002 0.417415 0.071535
158 1 0.0489248 0.395691 0.500739
159 1 0.577671 0.171764 0.838978
160 1 0.658837 0.62948 0.383647
161 1 0.959213 0.0699715 0.119991
162 1 0.723559 0.266625 0.14493
163 1 0.0310324 0.387247 0.248212
164 1 0.0475038 0.564547 0.881356
165 1 0.987195 0.551582 0.748803
166 1 0.49017 0.745903 0.946353
167 1 0.116132 0.227273 0.387914
168 1 0.92333 0.750399 0.603657
169 1 0.289883 0.750621 0.869315
170 1 0.271758 0.635796 0.341527
171 1 0.22679 0.630902 0.276366
172 1 0.206811 0.234048 0.214699
173 1 0.17511 0.395516 0.981789
174 1 0.981498 0.543027 0.103779
175 1 0.260769 0.392884 0.419284
176 1 0.162487 0.0812815 0.850989
177 1 0.343763 0.513538 0.894091
178 1 0.53838 0.533459 0.25846
179 1 0.404912 0.415263 0.762684
180 1 0.931774 0.2286 0.0544793
181 1 0.319962 0.497951 0.151117
182 1 0.854117 0.192006 0.821526
183 1 0.386533 0.588267 0.23511
184 1 0.439229 0.554397 0.852161
185 1 0.661614 0.757646 0.770748
186 1 0.117731 0.199022 0.087545
187 1 0.327846 0.546211 0.465171
188 1 0.285262 0.188032 0.895059
189 1 0.693425 0.332788 0.888854
190 1 0.052501 0.175472 0.0346586
191 1 0.674677 0.368733 0.164443
192 1 0.853557 0.488028 0.196711
193 1 0.450448 0.0555835 0.12063
194 1 0.760263 0.460221 0.0622391
195 1 0.853832 0.607802 0.584817
196 1 0.788348 0.245374 0.991209
197 1 0.704427 0.202973 0.127318
198 1 0.419436 0.439117 0.0535127
199 1 0.106079 0.367752 0.544407
200 1 0.914645 0.812727 0.651773
201 1 0.0350924 0.28506 0.0185966
202 1 0.207593 0.756177 0.97128
203 1 0.110705 0.567199 0.955247
204 1 0.129273 0.498621 0.0139912
205 1 0.37989 0.831741 0.525631
206 1 0.404219 0.590341 0.947707
207 1 0.844558 0.727337 0.934382
208 1 0.231896 0.823885 0.84362
209 1 0.147821 0.195474 0.342205
210 1 0.350557 0.787819 0.135157
211 1 0.151107 0.328313 0.969885
212 1 0.183955 0.0950906 0.0196808
213 1 0.872716 0.0504317 0.938872
214 1 0.58254 0.481074 0.953654
215 1 0.240323 0.419457 0.814991
216 1 0.175434 0.531765 0.983861
217 1 0.166238 0.414584 0.198432
218 1 0.545496 0.68547 0.293725
219 1 0.552224 0.903145 0.265859
220 1 0.242109 0.758964 0.26791
221 1 0.576934 0.431817 0.130733
222 1 0.49724 0.548398 0.045708
223 1 0.676411 0.61933 0.327156
224 1 0.416543 0.475431 0.650059
225 1 0.590654 0.744987 0.179042
226 1 0.593129 0.122227 0.0137366
227 1 0.3299 0.863551 0.0592863
228 1 0.182779 0.433645 0.146834
229 1 0.352151 0.55134 0.954457
230 1 0.151226 0.520159 0.0754688
231 1 0.919672 0.576042 0.920912
232 1 0.213923 0.453443 0.190384
233 1 0.819372 0.72014 0.117111
234 1 0.977634 0.551022 0.163126
235 1 0.111113 0.355509 0.124076
236 1 0.738689 0.467366 0.849119
237 1 0.889213 0.199776 0.35517
238 1 0.509397 0.863435 0.681554
239 1 0.830672 0.31901 0.755424
240 1 0.686963 0.247769 0.248637
241 1 0.762606 0.927584 0.0777271
242 1 0.183111 0.986227 0.766177
243 1 0.351322 0.944991 0.707419
244 1 0.265618 0.83152 0.959658
245 1 0.861187 0.896068 0.0436892
246 1 0.876665 0.795179 0.000313163
247 1 0.129173 0.782274 0.697773
248 1 0.738186 0.875673 0.0763737
249 1 0.23815 0.895824 0.281008
250 1 0.103912 0.551662 0.865008
251 1 0.33075 0.612163 0.0454596
252 1 0.00786343 0.900923 0.775534
253 1 0.19757 0.776004 0.392589
254 1 0.27899 0.390927 0.861903
255 1 0.339636 0.347125 0.292917
256 1 0.420109 0.660043 0.251128
257 1 0.633399 0.417897 0.0161315
258 1 0.156674 0.756712 0.759882
259 1 0.433811 0.708114 0.0568896
260 1 0.375216 0.541121 0.596752
261 1 0.595557 0.0184714 0.934735
262 1 0.698256 0.505208 0.220951
263 1 0.0595294 0.603718 0.349876
264 1 0.409981 0.514477 0.21989
265 1 0.656028 0.455933 0.843874
266 1 0.262421 0.664426 0.967621
267 1 0.550702 0.641726 0.225714
268 1 0.930733 0.120807 0.175762
269 1 0.283747 0.739677 0.0475019
270 1 0.05041 0.192663 0.139652
271 1 0.947115 0.175146 0.255516
272 1 0.0749536 0.377362 0.7232
273 1 0.0317596 0.584617 0.772441
274 1 0.563966 0.886641 0.83379
275 1 0.0109595 0.4408 0.867649
276 1 0.660801 0.25876 0.123858
277 1 0.822567 0.678501 0.835475
278 1 0.825773 0.617518 0.795583
279 1 0.521988 0.58158 0.59043
280 1 0.320058 0.924726 0.839866
281 1 0.994826 0.662609 0.178936
282 1 0.336869 0.21284 0.703193
283 1 0.760036 0.708032 0.108046
284 1 0.93999 0.0619492 0.550321
285 1 0.946803 0.718906 0.437585
286 1 0.13499 0.361332 0.187629
287 1 0.39801 0.0964021 0.13015
288 1 0.959624 0.370693 0.578952
289 1 0.612462 0.910866 0.253232
290 1 0.584601 0.0779477 0.464579
291 1 0.255365 0.0123643 0.835389
292 1 0.451103 0.00865576 0.319775
293 1 0.369353 0.604408 0.327802
294 1 0.651652 0.906941 0.209681
295 1 0.589214 0.674953 0.35926
296 1 0.41765 0.00738049 0.17813
297 1 0.743112 0.525122 0.120343
298 1 0.362584 0.712618 0.160618
299 1 0.305479 0.837522 0.121033
300 1 0.941099 0.415577 0.630811
301 1 0.366076 0.598239 0.664247
302 1 0.707494 0.611672 0.0756244
303 1 0.945476 0.870138 0.978645
304 1 0.731291 0.0999699 0.69168
305 1 0.254272 0.33634 0.854416
306 1 0.433477 0.693954 0.616473
307 1 0.839434 0.415679 0.874243
308 1 0.524946 0.866536 0.0273513
309 1 0.943624 0.721281 0.852854
310 1 0.98779 0.128022 0.992675
311 1 0.244189 0.721203 0.479824
312 1 0.467407 0.501967 0.984368
313 1 0.91961 0.520645 0.893753
314 1 0.854183 0.947185 0.921558
315 1 0.568982 0.0141635 0.486195
316 1 0.663074 0.585563 0.580829
317 1 0.690981 0.881361 0.83262
318 1 0.585192 0.906866 0.913026
319 1 0.0503289 0.506962 0.981892
320 1 0.44013 0.782089 0.926349
321 1 0.986361 0.856295 0.414561
322 1 0.636025 0.617667 0.258574
323 1 0.297294 0.493102 0.33825
324 1 0.963203 0.7981 0.146352
325 1 0.0852702 0.608591 0.129376
326 1 0.0386469 0.0196317 0.631549
327 1 0.939393 0.793358 0.840183
328 1 0.303715 0.731873 0.101364
329 1 0.734654 0.590069 0.862326
330 1 0.092788 0.305159 0.982164
331 1 0.370315 0.975312 0.950877
332 1 0.531107 0.12893 0.0144189
333 1 0.111993 0.105817 0.591345
334 1 0.772378 0.763598 0.557946
335 1 0.506313 0.975004 0.152519
336 1 0.116563 0.76939 0.101379
337 1 0.549918 0.786335 0.0760387
338 1 0.0385048 0.934588 0.0180452
339 1 0.557703 0.623622 0.501699
340 1 0.996151 0.848328 0.270838
341 1 0.637413 0.666196 0.314824
342 1 0.495851 0.937376 0.0918187
343 1 0.653822 0.876371 0.0182851
344 1 0.800618 0.173891 0.765564
345 1 0.800187 0.405594 0.0465512
346 1 0.536973 0.307387 0.0365015
347 1 0.633116 0.135118 0.0762382
348 1 0.584064 0.926149 0.323207
349 1 0.311707 0.648679 0.30447
350 1 0.49303 0.547109 0.876915
351 1 0.651355 0.601344 0.0945816
352 1 0.895472 0.0987145 0.4649
353 1 0.255234 0.808612 0.902538
354 1 0.768392 0.657243 0.954521
355 1 0.721966 0.680188 0.925487
356 1 0.753504 0.335916 0.335631
357 1 0.502739 0.18844 0.0518925
358 1 0.962695 0.0335525 0.818023
359 1 0.0918736 0.662761 0.249742
360 1 0.898204 0.120454 0.0365042
361 1 0.444637 0.649849 0.321293
362 1 0.290001 0.352946 0.565451
363 1 0.0751586 0.928888 0.168959
364 1 0.6689 0.0817914 0.0956986
365 1 0.982266 0.930286 0.124831
366 1 0.154135 0.863243 0.591513
367 1 0.230187 0.152164 0.081732
368 1 0.0646898 0.259895 0.448508
369 1 0.349457 0.102311 0.862302
370 1 0.133355 0.404646 0.718113
371 1 0.237753 0.0602181 0.991766
372 1 0.0684315 0.508194 0.853058
373 1 0.80412 0.456251 0.753127
374 1 0.79996 0.867044 0.552823
375 1 0.403615 0.582206 0.0161615
376 1 0.756983 0.156672 0.275574
377 1 0.557613 0.721684 0.747197
378 1 0.37136 0.90726 0.936578
379 1 0.431319 0.301197 0.464414
380 1 0.245753 0.8659 0.148943
381 1 0.712017 0.738729 0.127399
382 1 0.507608 0.0936515 0.362848
383 1 0.0418532 0.960706 0.35929
384 1 0.467046 0.955994 0.656626
385 1 0.866838 0.92172 0.107902
386 1 0.654194 0.320104 0.932458
387 1 0.478913 0.0615937 0.721868
388 1 0.359691 0.0847214 0.341436
389 1 0.842532 0.0638212 0.812887
390 1 0.553143 0.224029 0.0824717
391 1 0.480755 0.946048 0.830569
392 1 0.382703 0.0544505 0.645111
393 1 0.048738 0.862065 0.0653135
394 1 0.894835 0.450521 0.648493
395 1 0.402531 0.38409 0.320325
396 1 0.996174 0.30735 0.870514
397 1 0.298714 0.532826 0.842769
398 1 0.353132 0.722367 0.476678
399 1 0.400094 0.139391 0.309114
400 1 0.752844 0.117058 0.0130242
401 1 0.951511 0.946674 0.788476
402 1 0.34648 0.062096 0.601301
403 1 0.473963 0.612908 0.0426278
404 1 0.716255 0.128645 0.117784
405 1 0.348282 0.0592075 0.462844
406 1 0.577888 0.132817 0.104298
407 1 0.195719 0.977699 0.184354
408 1 0.486013 0.137326 0.259569
409 1 0.895187 0.132682 0.22413
410 1 0.00366176 0.486783 0.0421589
411 1 0.0953871 0.164258 0.258
412 1 0.403187 0.183524 0.352197
413 1 0.316386 0.856792 0.862622
414 1 0.302339 0.984858 0.873759
415 1 0.636777 0.512503 0.182468
416 1 0.504156 0.103446 0.16345
417 1 0.696716 0.404521 0.109774
418 1 0.504514 0.642187 0.295324
419 1 0.457383 0.117346 0.331812
420 1 0.230918 0.21738 0.855576
421 1 0.422202 0.0228242 0.94426
422 1 0.664792 0.875231 0.401264
423 1 0.036695 0.627342 0.162014
424 1 0.635065 0.969018 0.264528
425 1 0.273615 0.237065 0.128077
426 1 0.61797 0.112924 0.941401
427 1 0.672229 0.692338 0.181973
428 1 0.0827865 0.816655 0.844254
429 1 0.623188 0.592214 0.324404
430 1 0.2917 0.151122 0.933766
431 1 0.824799 0.736027 0.989186
432 1 0.561438 0.0750734 0.941524
433 1 0.683011 0.873802 0.96054
434 1 0.958686 0.124395 0.0951093
435 1 0.63364 0.218089 0.195343
436 1 0.907176 0.163395 0.396559
437 1 0.0758122 0.0488114 0.0334348
438 1 0.455611 0.280936 0.799621
439 1 0.18412 0.807731 0.734283
440 1 0.362564 0.9886 0.502194
441 1 0.895634 0.118951 0.284048
442 1 0.287752 0.198581 0.0096729
443 1 0.763745 0.348034 0.0422163
444 1 0.181372 0.0325641 0.318813
445 1 0.0771849 0.216231 0.701446
446 1 0.988753 0.200008 0.847726
447 1 0.650019 0.197241 0.637063
448 1 0.501251 0.106745 0.950853
449 1 0.00746381 0.121382 0.14207
450 1 0.198818 0.0641805 0.421036
451 1 0.847463 0.953676 0.797273
452 1 0.542089 0.816849 0.32837
453 1 0.160943 0.332366 0.910588
454 1 0.265421 0.767141 0.943572
455 1 0.483209 0.755769 0.406264
456 1 0.804547 0.684428 0.997991
457 1 0.0924237 0.0123408 0.223385
458 1 0.398068 0.288017 0.215372
459 1 0.724202 0.930945 0.490092
460 1 0.261605 0.486948 0.818914
461 1 0.398927 0.877598 0.483702
462 1 0.0279463 0.996688 0.0459484
463 1 0.418841 0.849904 0.609873
464 1 0.580798 0.85587 0.299922
465 1 0.698057 0.979405 0.964539
466 1 0.587186 0.288153 0.99428
467 1 0.619345 0.883615 0.969528
468 1 0.50225 0.195843 0.286623
469 1 0.0860791 0.253154 0.098845
470 1 0.681498 0.286488 0.82199
471 1 0.0639423 0.32853 0.0912595
472 1 0.917537 0.159424 0.00186663
473 1 0.0557948 0.0774158 0.459853
474 1 0.169216 0.374534 0.666239
475 1 0.699262 0.932627 0.576872
476 1 0.762846 0.935437 0.942831
477 1 0.796498 0.83316 0.216558
478 1 0.281967 0.291515 0.182779
479 1 0.960664 0.206662 0.557842
480 1 0.442039 0.779056 0.212755
481 1 0.391635 0.544758 0.740875
482 1 0.927206 0.987688 0.866026
483 1 0.324191 0.27478 0.12449
484 1 0.0546473 0.298006 0.147297
485 1 0.949434 0.302003 0.0923155
486 1 0.0885279 0.465427 0.373849
487 1 0.107159 0.362108 0.00060426
488 1 0.982504 0.807694 0.890439
489 1 0.970437 0.288587 0.938268
490 1 0.131648 0.457356 0.553105
491 1 0.527717 0.10787 0.712759
492 1 0.291452 0.371687 0.965323
493 1 0.171713 0.0757055 0.697641
494 1 0.301424 0.987351 0.801582
495 1 0.387346 0.970405 0.381181
496 1 0.52352 0.39687 0.836226
497 1 0.140864 0.850524 0.0834823
498 1 0.232039 0.204016 0.162415
499 1 0.0577119 0.121544 0.190144
500 1 0.261915 0.869953 0.802394
501 1 0.557406 0.0867282 0.133163
502 1 0.182469 0.33245 0.0980069
503 1 0.455372 0.561464 0.316362
504 1 0.512409 0.636757 0.952454
505 1 0.693941 0.902002 0.702393
506 1 0.385835 0.472657 0.146435
507 1 0.832424 0.19405 0.327931
508 1 0.691867 0.193819 0.907063
509 1 0.647624 0.373889 0.0544304
510 1 0.215148 0.999225 0.130916
511 1 0.725923 0.271837 0.202694
512 1 0.503628 0.619959 0.547823
513 1 0.519138 0.277323 0.258121
514 1 0.9705 0.535291 0.0443512
515 1 0.195599 0.747049 0.17797
516 1 0.695342 0.352839 0.0866449
517 1 0.920897 0.947701 0.931954
518 1 0.999186 0.756811 0.458143
519 1 0.884826 0.342562 0.388369
520 1 0.108333 0.0598501 0.252703
521 1 0.337261 0.160756 0.806902
522 1 0.338258 0.544838 0.357445
523 1 0.687526 0.912629 0.0552135
524 1 0.215847 0.434861 0.0534545
525 1 0.174345 0.446115 0.741211
526 1 0.473979 0.896805 0.873567
527 1 0.115556 0.941361 0.0143227
528 1 0.266095 0.299781 0.75225
529 1 0.622276 0.335456 0.137616
530 1 0.148483 0.296361 0.132616
531 1 0.97834 0.246024 0.0939148
532 1 0.176429 0.240024 0.894225
533 1 0.387617 0.399306 0.536578
534 1 0.800979 0.930658 0.638757
535 1 0.403871 0.594342 0.127181
536 1 0.260793 0.353756 0.280499
537 1 0.56151 0.242441 0.72369
538 1 0.947399 0.470124 0.908659
539 1 0.286641 0.899218 0.352
540 1 0.410432 0.382347 0.214971
541 1 0.439991 0.494057 0.158461
542 1 0.46643 0.728653 0.242926
543 1 0.465126 0.148566 0.386957
544 1 0.117904 0.209101 0.861682
545 1 0.447172 0.461853 0.235426
546 1 0.309947 0.479835 0.725643
547 1 0.522396 0.429404 0.752737
548 1 0.849753 0.0846643 0.0724908
549 1 0.855053 0.772286 0.106218
550 1 0.886196 0.16259 0.167157
551 1 0.933946 0.37411 0.744514
552 1 0.0922164 0.188866 0.967271
553 1 0.757737 0.0100241 0.222417
554 1 0.704359 0.533249 0.427557
555 1 0.844355 0.481043 0.0574819
556 1 0.03544 0.135275 0.784811
557 1 0.24356 0.45672 0.866057
558 1 0.88007 0.191496 0.0313672
559 1 0.954498 0.985606 0.276616
560 1 0.708368 0.19949 0.295175
561 1 0.713585 0.0525059 0.327493
562 1 0.0636612 0.431708 0.0262055
563 1 0.166325 0.46316 0.0843068
564 1 0.798506 0.996661 0.270912
565 1 0.0350829 0.89463 0.135467
566 1 0.866704 0.625166 0.315795
567 1 0.428228 0.239811 0.477522
568 1 0.898897 0.426577 0.264423
569 1 0.96498 0.0662878 0.951302
570 1 0.123492 0.370609 0.0581158
571 1 0.863366 0.470284 0.996291
572 1 0.230259 0.676265 0.0291204
573 1 0.286105 0.664057 0.676413
574 1 0.272306 0.254665 0.700728
575 1 0.53936 0.351902 0.66911
576 1 0.387338 0.947623 0.0558732
577 1 0.183649 0.475641 0.0284305
578 1 0.424668 0.0735748 0.813852
579 1 0.441196 0.471633 0.876178
580 1 0.540315 0.717388 0.118421
581 1 0.604355 0.593173 0.929526
582 1 0.631046 0.465251 0.215918
583 1 0.394085 0.417223 0.919816
584 1 0.0233947 0.285898 0.0856062
585 1 0.384916 0.382532 0.710999
586 1 0.972872 0.136163 0.93711
587 1 0.255906 0.778245 0.122785
588 1 0.322708 0.37047 0.0873928
589 1 0.588458 0.49592 0.564587
590 1 0.806354 0.353707 0.101184
591 1 0.877442 0.253986 0.913465
592 1 0.678368 0.432738 0.975372
593 1 0.626114 0.316706 0.270721
594 1 0.737726 0.408004 0.343692
595 1 0.523546 0.151016 0.091016
596 1 0.694082 0.132414 0.291067
597 1 0.0381299 0.461537 0.922748
598 1 0.0505004 0.730834 0.352074
599 1 0.858479 0.194197 0.111204
600 1 0.746223 0.92918 0.850524
601 1 0.924291 0.184077 0.0981052
602 1 0.186241 0.367396 0.147304
603 1 0.0209828 0.18969 0.317066
604 1 0.324052 0.819833 0.432352
605 1 0.0732681 0.95152 0.95265
606 1 0.844225 0.5319 0.778414
607 1 0.264826 0.631366 0.722397
608 1 0.1679 0.0566181 0.905268
609 1 0.899261 0.641627 0.095691
610 1 0.905802 0.399101 0.119621
611 1 0.351853 0.684566 0.222769
612 1 0.287712 0.894597 0.112062
613 1 0.4703 0.468893 0.118401
614 1 0.0549483 0.457333 0.102072
615 1 0.27482 0.135429 0.986112
616 1 0.168899 0.664432 0.162465
617 1 0.776505 0.340121 0.812269
618 1 0.280995 0.430072 0.760479
619 1 0.166311 0.702703 0.327656
620 1 0.0656161 0.0704782 0.14591
621 1 0.543332 0.539461 0.118337
622 1 0.621304 0.204005 0.367019
623 1 0.790588 0.592664 0.920536
624 1 0.661358 0.149684 0.944959
625 1 0.236124 0.675801 0.780558
626 1 0.879583 0.31505 0.0369764
627 1 0.64225 0.325796 0.0160402
628 1 0.146626 0.384511 0.267147
629 1 0.717233 0.734696 0.293855
630 1 0.48296 0.706497 0.292492
631 1 0.0266858 0.597394 0.110407
632 1 0.867303 0.605906 0.153611
633 1 0.0433169 0.292285 0.312228
634 1 0.804638 0.571089 0.0556608
635 1 0.943584 0.402834 0.192446
636 1 0.733418 0.750458 0.00713428
637 1 0.68229 0.183869 0.238976
638 1 0.770794 0.643316 0.893075
639 1 0.964191 0.155296 0.885037
640 1 0.308532 0.508147 0.0118001
641 1 0.383252 0.779287 0.900779
642 1 0.36844 0.899334 0.203085
643 1 0.666181 0.603701 0.0293176
644 1 0.362633 0.56095 0.0703053
645 1 0.0294691 0.188324 0.480973
646 1 0.508657 0.675569 0.34711
647 1 0.438912 0.961502 0.282726
648 1 0.0619614 0.737195 0.12528
649 1 0.0934231 0.873049 0.290438
650 1 0.0447263 0.0613715 0.979542
651 1 0.0893899 0.751947 0.751594
652 1 0.145436 0.837621 0.986471
653 1 0.812597 0.389763 0.78583
654 1 0.838985 0.280101 0.414711
655 1 0.114951 0.511337 0.404931
656 1 0.322187 0.52723 0.652181
657 1 0.445001 0.913653 0.920765
658 1 0.730621 0.600434 0.544179
659 1 0.546021 0.249515 0.873808
660 1 0.34145 0.755519 0.0378139
661 1 0.30776 0.453437 0.435154
662 1 0.812981 0.754905 0.407948
663 1 0.492233 0.0398663 0.344402
664 1 0.454471 0.653473 0.0911048
665 1 0.477918 0.805278 0.375081
666 1 0.128787 0.972671 0.1996
667 1 0.391251 0.562802 0.404753
668 1 0.0738522 0.555683 0.0246984
669 1 0.742617 0.506949 0.465102
670 1 0.897452 0.580185 0.693675
671 1 0.704626 0.290422 0.0944309
672 1 0.82749 0.298373 0.889175
673 1 0.976097 0.607586 0.194244
674 1 0.244726 0.70846 0.144756
675 1 0.125296 0.346393 0.709231
676 1 0.0207543 0.245506 0.330932
677 1 0.566582 0.650696 0.0597246
678 1 0.83856 0.539881 0.895032
679 1 0.984338 0.976279 0.350886
680 1 0.0407667 0.545655 0.139508
681 1 0.499432 0.17033 0.425381
682 1 0.908167 0.626408 0.941577
683 1 0.30795 0.0494894 0.894604
684 1 0.72115 0.798855 0.143868
685 1 0.0618804 0.766955 0.955213
686 1 0.197828 0.643908 0.606562
687 1 0.815497 0.930631 0.581853
688 1 0.191226 0.929072 0.0317005
689 1 0.114025 0.42359 0.771922
690 1 0.21984 0.930867 0.137281
691 1 0.502321 0.0188983 0.446709
692 1 0.856667 0.753137 0.180874
693 1 0.459073 0.737438 0.17527
694 1 0.777522 0.728059 0.284702
695 1 0.169565 0.481429 0.507705
696 1 0.360054 0.136276 0.397706
697 1 0.757683 0.477633 0.165647
698 1 0.13926 0.439069 0.930142
699 1 0.535062 0.674949 0.000575973
700 1 0.704989 0.584806 0.382507
701 1 0.492097 0.995354 0.994535
702 1 0.644724 0.931174 0.98837
703 1 0.49917 0.324763 0.487073
704 1 0.0597264 0.0785401 0.0810542
705 1 0.316105 0.725242 0.993113
706 1 0.882579 0.773681 0.353119
707 1 0.951935 0.700992 0.211157
708 1 0.699343 0.0447689 0.541936
709 1 0.298982 0.782871 0.370763
710 1 0.978646 0.88619 0.539072
711 1 0.365088 0.647599 0.909749
712 1 0.992509 0.826642 0.840144
713 1 0.404646 0.621121 0.761679
714 1 0.0465014 0.423344 0.748265
715 1 0.965066 0.426488 0.250854
716 1 0.537331 0.429029 0.641173
717 1 0.605528 0.85407 0.223346
718 1 0.224837 0.601327 0.000112316
719 1 0.315929 0.0176498 0.416357
720 1 0.801303 0.871988 0.320529
721 1 0.046949 0.0129425 0.171517
722 1 0.441797 0.633701 0.96538
723 1 0.293385 0.610098 0.15857
724 1 0.95987 0.694759 0.129009
725 1 0.0668064 0.205058 0.60557
726 1 0.352794 0.279418 0.267077
727 1 0.858759 0.335123 0.112516
728 1 0.732019 0.532748 0.79848
729 1 0.241074 0.795065 0.357277
730 1 0.0561148 0.746335 0.853525
731 1 0.538719 0.77768 0.381303
732 1 0.358305 0.727595 0.372101
733 1 0.154295 0.697508 0.209
734 1 0.580142 0.627643 0.972422
735 1 0.149011 0.730793 0.472498
736 1 0.155418 0.180632 0.925325
737 1 0.421413 0.603713 0.285642
738 1 0.243615 0.408732 0.232999
739 1 0.539369 0.827582 0.265135
740 1 0.217123 0.874639 0.994772
741 1 0.821888 0.692863 0.567339
742 1 0.517019 0.882739 0.403769
743 1 0.390741 0.764018 0.621723
744 1 0.525693 0.0711312 0.496704
745 1 0.539883 0.99729 0.648103
746 1 0.597943 0.690168 0.122719
747 1 0.463624 0.0305308 0.0635959
748 1 0.171441 0.702435 0.0593945
749 1 0.75681 0.225903 0.0934474
750 1 0.740622 0.0822758 0.0945219
751 1 0.689733 0.657495 0.0324152
752 1 0.490224 0.63957 0.173895
753 1 0.549113 0.0306356 0.282884
754 1 0.0370656 0.17379 0.835625
755 1 0.915954 0.332315 0.943908
756 1 0.937279 0.598315 0.0575201
757 1 0.275924 0.0429505 0.509482
758 1 0.00286343 0.686167 0.00820301
759 1 0.309212 0.985246 0.283413
760 1 0.612841 0.961834 0.928622
761 1 0.0516563 0.365546 0.145044
762 1 0.278439 0.172064 0.129604
763 1 0.0287221 0.878593 0.99936
764 1 0.905333 0.0749974 0.148138
765 1 0.0850339 0.912797 0.816447
766 1 0.361203 0.317871 0.902224
767 1 0.211037 0.840685 0.592942
768 1 0.986993 0.639741 0.948441
769 1 0.227386 0.82663 0.652034
770 1 0.860538 0.998024 0.208814
771 1 0.193058 0.876319 0.869445
772 1 0.961066 0.165752 0.743922
773 1 0.412739 0.125747 0.368205
774 1 0.136908 0.328137 0.578034
775 1 0.381327 0.918469 0.409259
776 1 0.460922 0.938643 0.161277
777 1 0.759355 0.2139 0.909571
778 1 0.446212 0.747595 0.6415
779 1 0.15649 0.935278 0.267233
780 1 0.30799 0.873497 0.549861
781 1 0.468664 0.279551 0.102636
782 1 0.352947 0.755569 0.420654
783 1 0.690501 0.0629414 0.94381
784 1 0.504441 0.110323 0.772223
785 1 0.842185 0.622363 0.388799
786 1 0.910094 0.950025 0.195311
787 1 0.833321 0.152674 0.0190813
788 1 0.603092 0.138755 0.892664
789 1 0.789777 0.755157 0.4951
790 1 0.60302 0.979729 0.307487
791 1 0.35753 0.954778 0.277695
792 1 0.305418 0.214154 0.25601
793 1 0.732166 0.874032 0.203931
794 1 0.476762 0.829334 0.249199
795 1 0.227997 0.879062 0.215407
796 1 0.623093 0.685959 0.266119
797 1 0.965746 0.982258 0.173407
798 1 0.766102 0.29093 0.101732
799 1 0.336057 0.927504 0.094612
800 1 0.728016 0.758603 0.857906
801 1 0.901701 0.887854 0.717319
802 1 0.336143 0.954122 0.17472
803 1 0.121274 0.172051 0.145744
804 1 0.600844 0.326563 0.952332
805 1 0.751821 0.849532 0.279869
806 1 0.200308 0.423265 0.935107
807 1 0.83087 0.335546 0.434087
808 1 0.395013 0.130001 0.0280465
809 1 0.912016 0.0135014 0.958507
810 1 0.360496 0.794289 0.381399
811 1 0.123562 0.152468 0.309283
812 1 0.215402 0.995468 0.346682
813 1 0.049743 0.195555 0.406436
814 1 0.279191 0.959509 0.102317
815 1 0.23048 0.446151 0.629425
816 1 0.380586 0.0318699 0.357043
817 1 0.989306 0.799793 0.412756
818 1 0.700971 0.989629 0.358295
819 1 0.345628 0.806128 0.572072
820 1 0.113312 0.0437485 0.0940291
821 1 0.785582 0.110291 0.251594
822 1 0.987274 0.0880763 0.369402
823 1 0.476554 0.677025 0.543775
824 1 0.429269 0.272248 0.268006
825 1 0.659076 0.0910574 0.186244
826 1 0.985364 0.76734 0.275398
827 1 0.782156 0.803158 0.991636
828 1 0.600052 0.629638 0.111424
829 1 0.88193 0.29314 0.345052
830 1 0.439375 0.972033 0.606032
831 1 0.403778 0.793282 0.97229
832 1 0.589249 0.820979 0.0231404
833 1 0.489381 0.396975 0.142052
834 1 0.649245 0.0237306 0.987343
835 1 0.0544483 0.262358 0.766002
836 1 0.880915 0.744074 0.0517801
837 1 0.638195 0.827393 0.979052
838 1 0.829724 0.347469 0.182982
839 1 0.884901 0.195832 0.23113
840 1 0.97933 0.142345 0.316756
841 1 0.140604 0.143179 0.983234
842 1 0.188212 0.850163 0.771546
843 1 0.0490896 0.0548282 0.273321
844 1 0.489324 0.772727 0.850119
845 1 0.712408 0.256076 0.327429
846 1 0.137584 0.0344221 0.0306439
847 1 0.119585 0.936489 0.75256
848 1 0.0249635 0.545579 0.321322
849 1 0.0712375 0.202408 0.914037
850 1 0.307393 0.0774728 0.0849992
851 1 0.315729 0.984611 0.623594
852 1 0.16258 0.976109 0.993427
853 1 0.151184 0.694576 0.84837
854 1 0.356912 0.4073 0.139451
855 1 0.171785 0.213411 0.82957
856 1 0.301349 0.227819 0.478019
857 1 0.188494 0.429217 0.426319
858 1 0.585474 0.364834 0.00260412
859 1 0.789605 0.816133 0.523349
860 1 0.504742 0.393205 0.517077
861 1 0.555967 0.200229 0.0123631
862 1 0.541739 0.294684 0.364763
863 1 0.69166 0.888883 0.458262
864 1 0.604023 0.442103 0.582181
865 1 0.638582 0.228129 0.0193549
866 1 0.916586 0.278027 0.971042
867 1 0.74828 0.816241 0.039043
868 1 0.818903 0.20675 0.273203
869 1 0.118357 0.243613 0.163443
870 1 0.362341 0.114931 0.0762754
871 1 0.834089 0.238251 0.221047
872 1 0.337941 0.0231972 0.175304
873 1 0.849875 0.253934 0.809653
874 1 0.725227 0.0803454 0.161003
875 1 0.598348 0.902044 0.370465
876 1 0.916945 0.750633 0.891053
877 1 0.707163 0.373192 0.48798
878 1 0.0140137 0.961143 0.165389
879 1 0.977583 0.267537 0.000736744
880 1 0.999869 0.886909 0.323328
881 1 0.6013 0.724428 0.558842
882 1 0.692079 0.27255 0.923912
883 1 0.317423 0.174173 0.537433
884 1 0.997412 0.420289 0.0526265
885 1 0.153089 0.686134 0.272412
886 1 0.839335 0.167454 0.517745
887 1 0.946332 0.897547 0.0767289
888 1 0.560097 0.250064 0.197807
889 1 0.187343 0.47076 0.970624
890 1 0.841328 0.399283 0.00923672
891 1 0.396745 0.437618 0.974897
892 1 0.653966 0.212821 0.961612
893 1 0.228094 0.478717 0.91883
894 1 0.162961 0.540678 0.553293
895 1 0.635369 0.806443 0.495195
896 1 0.0774904 0.146626 0.110345
897 1 0.10771 0.0941031 0.00745029
898 1 0.745817 0.337245 0.232994
899 1 0.375869 0.0132791 0.0751351
900 1 0.491853 0.278371 0.441534
901 1 0.656496 0.398939 0.681336
902 1 0.476813 0.294304 0.034688
903 1 0.442164 0.0315533 0.381494