ITEM: TIMESTEP
5800
ITEM: NUMBER OF ATOMS
4000
ITEM: BOX BOUNDS pp pp pp
0.0000000000000000e+00 1.6795961913825074e+01
0.0000000000000000e+00 1.6795961913825074e+01
0.0000000000000000e+00 1.6795961913825074e+01
ITEM: ATOMS id type xs ys zs
1 1 0.999523 0.996585 -0.000746394
2 1 0.0496596 0.0476158 0.0019011
3 1 0.0499207 0.000928361 0.0520527
4 1 0.996953 0.0487985 0.0491582
5 1 0.099033 1.00071 0.00211014
6 1 0.151449 0.0518528 0.00318121
7 1 0.151108 0.998234 0.0530963
8 1 0.103379 0.049825 0.0513107
9 1 0.195988 0.999217 0.00420447
10 1 0.251744 0.0448114 0.00121054
11 1 0.253076 0.998228 0.0498239
12 1 0.19812 0.0501365 0.0519665
13 1 0.299042 0.9969 0.998006
14 1 0.347145 0.0500839 0.997171
15 1 0.351489 0.993377 0.0517483
16 1 0.299164 0.0474627 0.0512731
17 1 0.399701 0.000993003 1.00012
18 1 0.45111 0.050887 0.00397396
19 1 0.448753 0.00143592 0.054146
20 1 0.395003 0.0479441 0.0459949
21 1 0.501673 -0.000949045 0.0032438
22 1 0.552935 0.0479477 0.00453454
23 1 0.549188 0.00103404 0.0531135
24 1 0.501861 0.0510086 0.0512112
25 1 0.602509 0.999416 0.00354213
26 1 0.647533 0.0523318 0.00317143
27 1 0.650722 0.999394 0.0518544
28 1 0.600133 0.0562137 0.0533732
29 1 0.696837 1.00017 0.997708
30 1 0.746767 0.0528844 0.999849
31 1 0.747133 0.0024013 0.0488927
32 1 0.697977 0.0514097 0.0477832
33 1 0.799463 0.0048567 0.00223576
34 1 0.849421 0.0514666 0.997445
35 1 0.8507 0.000363484 0.0499668
36 1 0.801264 0.0503032 0.0513123
37 1 0.897529 0.999984 0.998104
38 1 0.946434 0.0510808 0.993581
39 1 0.949063 0.999918 0.0466685
40 1 0.899289 0.053071 0.047579
41 1 0.998531 0.0983644 0.997567
42 1 0.0546939 0.149271 0.999584
43 1 0.051536 0.103184 0.0500978
44 1 0.998166 0.145371 0.0502415
45 1 0.100471 0.097317 0.00399197
46 1 0.148299 0.146782 0.00258883
47 1 0.150152 0.0992856 0.0529147
48 1 0.101717 0.149285 0.052014
49 1 0.205113 0.0987327 0.0020458
50 1 0.250975 0.150112 -0.000594947
51 1 0.250452 0.0970019 0.0509414
52 1 0.202576 0.146097 0.0484566
53 1 0.297544 0.102622 0.00247318
54 1 0.347145 0.149692 0.00205698
55 1 0.34759 0.102743 0.0528097
56 1 0.29765 0.150338 0.0491343
57 1 0.399053 0.0993176 1.00011
58 1 0.449691 0.148151 0.00171342
59 1 0.448277 0.100888 0.0525261
60 1 0.396895 0.148354 0.0502774
61 1 0.498054 0.101425 0.00370128
62 1 0.551111 0.150747 0.999321
63 1 0.546261 0.0985406 0.0519706
64 1 0.497569 0.148191 0.0530034
65 1 0.597209 0.100175 -0.000100139
66 1 0.646007 0.149465 0.00185445
67 1 0.650467 0.102675 0.0502041
68 1 0.596319 0.152909 0.056269
69 1 0.696025 0.104567 0.00234967
70 1 0.749669 0.151231 0.00124682
71 1 0.750095 0.101705 0.0474584
72 1 0.697999 0.152003 0.0514778
73 1 0.800781 0.101135 0.997015
74 1 0.847547 0.151446 0.000116653
75 1 0.848234 0.100582 0.0500325
76 1 0.800432 0.151805 0.0516654
77 1 0.895867 0.101433 0.993079
78 1 0.94729 0.149374 0.000259602
79 1 0.949834 0.0965045 0.0459922
80 1 0.899488 0.148192 0.0479108
81 1 0.00134804 0.200264 0.998752
82 1 0.0541862 0.247961 0.000893863
83 1 0.0493133 0.201636 0.0513933
84 1 0.00218697 0.256342 0.0486372
85 1 0.10115 0.198065 0.00169778
86 1 0.15014 0.249135 0.00230257
87 1 0.151344 0.197636 0.0515953
88 1 0.101816 0.249802 0.0492609
89 1 0.202102 0.199846 0.00147235
90 1 0.248937 0.249158 0.996627
91 1 0.248554 0.199386 0.052679
92 1 0.202671 0.250909 0.0499006
93 1 0.297673 0.197215 0.00118437
94 1 0.344054 0.248607 -0.000302477
95 1 0.346893 0.199095 0.0497885
96 1 0.298405 0.246682 0.0491682
97 1 0.397464 0.197674 0.00220337
98 1 0.449957 0.249001 0.999566
99 1 0.448771 0.199325 0.0521093
100 1 0.397902 0.248777 0.0499059
101 1 0.49785 0.199688 0.00297303
102 1 0.546158 0.250564 0.998518
103 1 0.546165 0.199573 0.0515346
104 1 0.49967 0.248631 0.0524182
105 1 0.599024 0.199681 0.00190239
106 1 0.649482 0.248938 0.00058059
107 1 0.649318 0.200887 0.050185
108 1 0.600422 0.245795 0.0508073
109 1 0.696224 0.198357 0.999481
110 1 0.747457 0.246297 0.999463
111 1 0.747431 0.198758 0.0482833
112 1 0.703179 0.246223 0.0519882
113 1 0.799271 0.200659 0.000700115
114 1 0.848414 0.251118 0.998469
115 1 0.853423 0.19817 0.0488447
116 1 0.79833 0.245265 0.0483742
117 1 0.898895 0.197036 0.995475
118 1 0.9497 0.251386 0.99918
119 1 0.949216 0.198891 0.0459421
120 1 0.896299 0.252044 0.0437719
121 1 0.00361223 0.30152 1.00024
122 1 0.0523315 0.34914 0.00161368
123 1 0.0534733 0.30085 0.0509081
124 1 0.999835 0.350636 0.0500101
125 1 0.103825 0.299864 0.000465512
126 1 0.152932 0.352509 0.00291453
127 1 0.151834 0.297916 0.051704
128 1 0.105312 0.346872 0.0521416
129 1 0.199424 0.302899 0.999761
130 1 0.251051 0.351306 0.999015
131 1 0.253451 0.301796 0.0507499
132 1 0.200423 0.347977 0.046584
133 1 0.300824 0.301958 0.996319
134 1 0.352529 0.350946 0.998796
135 1 0.350632 0.299774 0.0457705
136 1 0.297297 0.350573 0.0514183
137 1 0.398255 0.297752 0.998724
138 1 0.447658 0.349926 1.00007
139 1 0.451188 0.300415 0.0497895
140 1 0.399017 0.349409 0.0501207
141 1 0.497699 0.297768 0.997402
142 1 0.548976 0.351034 0.996235
143 1 0.546248 0.301083 0.0464266
144 1 0.497223 0.351505 0.0493426
145 1 0.600009 0.298311 0.997012
146 1 0.650324 0.353636 0.0007853
147 1 0.646747 0.29919 0.0452078
148 1 0.597191 0.34754 0.0476183
149 1 0.699981 0.300048 0.00154654
150 1 0.747146 0.35208 0.997405
151 1 0.751631 0.301165 0.0488287
152 1 0.699758 0.346523 0.0518143
153 1 0.797761 0.298754 0.99693
154 1 0.848045 0.349423 0.999152
155 1 0.848634 0.300386 0.0513618
156 1 0.796806 0.347814 0.0486896
157 1 0.900352 0.299516 0.997058
158 1 0.947783 0.350315 1.00143
159 1 0.949869 0.302297 0.0505582
160 1 0.899363 0.347201 0.0474128
161 1 0.00130734 0.402526 1.00024
162 1 0.05067 0.450193 0.00192996
163 1 0.0512623 0.399093 0.0459918
164 1 0.00273176 0.451236 0.0464342
165 1 0.101143 0.400581 0.999656
166 1 0.147352 0.449452 0.002445
167 1 0.149035 0.398473 0.0501722
168 1 0.101462 0.449902 0.0518003
169 1 0.203426 0.402997 0.998488
170 1 0.250671 0.453611 0.998147
171 1 0.248705 0.401358 0.0498984
172 1 0.196239 0.450951 0.0499816
173 1 0.301346 0.400848 0.000945452
174 1 0.353474 0.449918 0.00175702
175 1 0.351433 0.398942 0.0496121
176 1 0.297306 0.452271 0.0514344
177 1 0.400129 0.401005 0.999104
178 1 0.450653 0.451329 0.995959
179 1 0.453364 0.402825 0.0497528
180 1 0.401969 0.449962 0.046631
181 1 0.500991 0.401058 0.997145
182 1 0.550619 0.449827 0.00131107
183 1 0.545889 0.400016 0.0515921
184 1 0.500315 0.454385 0.0461115
185 1 0.597613 0.398128 1.00031
186 1 0.646494 0.450856 0.999743
187 1 0.651092 0.400069 0.053534
188 1 0.60039 0.448422 0.0519835
189 1 0.696643 0.400111 0.00298993
190 1 0.75129 0.450905 0.999308
191 1 0.748386 0.400471 0.0502533
192 1 0.701762 0.451654 0.0490149
193 1 0.800349 0.399192 0.996413
194 1 0.849975 0.448113 0.00231358
195 1 0.848411 0.399194 0.0499647
196 1 0.79777 0.448693 0.0499765
197 1 0.902725 0.402259 0.00299056
198 1 0.950475 0.451453 0.999916
199 1 0.953361 0.401716 0.0483329
200 1 0.900129 0.448115 0.0516733
201 1 0.00107896 0.502271 0.998379
202 1 0.0490121 0.551148 0.998197
203 1 0.0542533 0.501103 0.0532671
204 1 7.37279e-05 0.54936 0.0496536
205 1 0.103713 0.498586 0.00580187
206 1 0.151947 0.552364 0.00233548
207 1 0.150115 0.501007 0.0532853
208 1 0.101229 0.552974 0.0469465
209 1 0.19678 0.50011 0.00350434
210 1 0.248446 0.554231 0.999924
211 1 0.245584 0.501419 0.0510439
212 1 0.199394 0.553442 0.050533
213 1 0.302267 0.499802 1.00063
214 1 0.350145 0.548344 0.996394
215 1 0.347276 0.502042 0.0504437
216 1 0.298362 0.548911 0.0509484
217 1 0.400018 0.500925 0.999919
218 1 0.451016 0.549008 0.997998
219 1 0.450469 0.501753 0.0474953
220 1 0.399297 0.5492 0.046437
221 1 0.49967 0.501899 0.996733
222 1 0.547282 0.549585 0.997467
223 1 0.553042 0.50106 0.0500867
224 1 0.498495 0.548511 0.045735
225 1 0.598185 0.498963 0.994921
226 1 0.650346 0.547565 0.99827
227 1 0.651843 0.500643 0.0471486
228 1 0.600892 0.549039 0.0481795
229 1 0.704164 0.502111 1.00031
230 1 0.749885 0.553314 0.999959
231 1 0.750586 0.499394 0.0481046
232 1 0.701453 0.549608 0.0512127
233 1 0.800149 0.497844 0.00149627
234 1 0.846985 0.547479 0.000369871
235 1 0.847864 0.501553 0.0511895
236 1 0.796883 0.552858 0.047981
237 1 0.89824 0.501018 0.00410358
238 1 0.952141 0.548051 0.00153747
239 1 0.948087 0.499642 0.0499325
240 1 0.896201 0.555555 0.0466349
241 1 0.00162464 0.599974 0.00113652
242 1 0.0494421 0.654821 0.99439
243 1 0.0494082 0.603411 0.048635
244 1 0.999789 0.654615 0.0462333
245 1 0.102578 0.603248 0.000733898
246 1 0.148942 0.65125 1.00031
247 1 0.15079 0.603445 0.0501552
248 1 0.101607 0.650793 0.0473426
249 1 0.199367 0.603058 0.999016
250 1 0.249852 0.65136 1.00004
251 1 0.253676 0.59867 0.0518885
252 1 0.204042 0.650437 0.048512
253 1 0.29997 0.600535 9.83997e-05
254 1 0.346394 0.652154 0.999098
255 1 0.350953 0.601114 0.0486964
256 1 0.297745 0.650262 0.0513405
257 1 0.399194 0.601746 0.996771
258 1 0.449064 0.64795 0.995342
259 1 0.446786 0.600066 0.0475035
260 1 0.399744 0.650192 0.0518492
261 1 0.496834 0.598802 0.999085
262 1 0.549944 0.645274 0.999435
263 1 0.54948 0.597413 0.0492526
264 1 0.499584 0.649373 0.0489043
265 1 0.598787 0.595394 0.999939
266 1 0.648863 0.649889 0.0023317
267 1 0.64644 0.598421 0.0487325
268 1 0.601168 0.64774 0.0489948
269 1 0.698267 0.600764 0.00143328
270 1 0.747591 0.65395 0.997887
271 1 0.748321 0.604483 0.0509718
272 1 0.697467 0.652866 0.0549744
273 1 0.799884 0.601819 -5.6574e-05
274 1 0.84693 0.653706 0.998364
275 1 0.848821 0.602425 0.0498504
276 1 0.799396 0.649198 0.0475476
277 1 0.898172 0.599143 0.998487
278 1 0.947799 0.650137 0.998903
279 1 0.949337 0.601376 0.0463628
280 1 0.898225 0.653614 0.0488035
281 1 0.998502 0.702408 0.000946207
282 1 0.0475811 0.749791 0.995243
283 1 0.0504987 0.704786 0.0461706
284 1 0.000371731 0.754187 0.0477006
285 1 0.100883 0.702373 0.996429
286 1 0.149958 0.747926 0.994987
287 1 0.150222 0.700841 0.0480594
288 1 0.102011 0.749768 0.0488842
289 1 0.201618 0.698442 0.00249496
290 1 0.245394 0.749862 0.997688
291 1 0.250971 0.699114 0.0493843
292 1 0.201776 0.748903 0.0520414
293 1 0.298314 0.69972 0.997542
294 1 0.345959 0.750007 0.998353
295 1 0.347186 0.6996 0.0501046
296 1 0.295902 0.747578 0.0462333
297 1 0.402011 0.702478 0.999867
298 1 0.451152 0.752253 0.00187942
299 1 0.448479 0.69495 0.0489281
300 1 0.403316 0.749969 0.0519366
301 1 0.49982 0.698041 -0.000168411
302 1 0.553761 0.747911 0.00129661
303 1 0.548526 0.698824 0.0484835
304 1 0.500288 0.749368 0.05
305 1 0.600169 0.698717 0.000574501
306 1 0.647756 0.749656 0.00404549
307 1 0.645432 0.699439 0.050752
308 1 0.599729 0.747913 0.0507792
309 1 0.694181 0.700742 0.00201202
310 1 0.746261 0.748143 0.00273732
311 1 0.749892 0.699545 0.0520224
312 1 0.695854 0.748576 0.053224
313 1 0.797284 0.702279 0.998981
314 1 0.851373 0.750185 0.998696
315 1 0.847083 0.699787 0.0505709
316 1 0.797858 0.749834 0.0509641
317 1 0.899071 0.700729 0.999658
318 1 0.948014 0.751356 0.997819
319 1 0.951365 0.703786 0.0498364
320 1 0.896819 0.749904 0.0499901
321 1 0.00128413 0.802246 0.996977
322 1 0.0493328 0.852048 0.998915
323 1 0.0500799 0.802704 0.0491163
324 1 0.996831 0.85356 0.0490506
325 1 0.0992333 0.801878 0.997256
326 1 0.148532 0.849363 -7.76111e-05
327 1 0.14968 0.799873 0.0470546
328 1 0.100383 0.851098 0.0511828
329 1 0.193304 0.797829 0.997779
330 1 0.248891 0.854591 0.996401
331 1 0.248986 0.799569 0.0475763
332 1 0.201261 0.845152 0.047363
333 1 0.294209 0.799643 0.998022
334 1 0.345204 0.849502 0.999637
335 1 0.345668 0.80072 0.0469254
336 1 0.29686 0.850486 0.0497698
337 1 0.398255 0.796743 0.00162784
338 1 0.451779 0.850368 0.997608
339 1 0.451776 0.801816 0.0474615
340 1 0.403749 0.85051 0.0511001
341 1 0.503773 0.799902 0.999413
342 1 0.553581 0.848329 0.00323004
343 1 0.547031 0.802896 0.0521422
344 1 0.499852 0.852022 0.0500166
345 1 0.603403 0.796845 0.000731282
346 1 0.648932 0.849831 0.00366568
347 1 0.648836 0.798606 0.0502688
348 1 0.602679 0.849825 0.0534188
349 1 0.700416 0.799161 0.00427988
350 1 0.748082 0.847225 0.0031053
351 1 0.748521 0.798049 0.0536918
352 1 0.698021 0.848189 0.0570832
353 1 0.798206 0.801159 0.999093
354 1 0.850284 0.85307 0.00268816
355 1 0.852126 0.801562 0.0497274
356 1 0.80014 0.848969 0.0480456
357 1 0.901018 0.800962 0.00429566
358 1 0.951847 0.851844 0.996238
359 1 0.952076 0.80029 0.0480802
360 1 0.898768 0.850158 0.0499591
361 1 0.00081978 0.901313 0.997908
362 1 0.0491849 0.952414 0.998437
363 1 0.0500066 0.900139 0.0459226
364 1 0.999035 0.950014 0.0523311
365 1 0.103098 0.899111 0.998353
366 1 0.148864 0.95223 -0.000396596
367 1 0.150933 0.89625 0.0514621
368 1 0.0991845 0.948963 0.051766
369 1 0.196706 0.900921 0.99831
370 1 0.2499 0.953133 -0.00139947
371 1 0.246945 0.901097 0.0478268
372 1 0.1984 0.94967 0.0513927
373 1 0.299747 0.900077 0.999135
374 1 0.349524 0.950503 -0.00103978
375 1 0.350247 0.902801 0.0489615
376 1 0.298416 0.949331 0.053275
377 1 0.399426 0.900178 0.999326
378 1 0.452128 0.952567 0.00249143
379 1 0.45201 0.899766 0.0487754
380 1 0.401968 0.950439 0.0476282
381 1 0.500124 0.901151 0.999008
382 1 0.551363 0.953885 0.00315554
383 1 0.551194 0.90312 0.0514866
384 1 0.499344 0.947993 0.0515459
385 1 0.600195 0.901191 0.00172181
386 1 0.648324 0.948061 0.00301725
387 1 0.653271 0.899497 0.0523063
388 1 0.600476 0.950455 0.0517567
389 1 0.698124 0.898921 -0.00045085
390 1 0.748923 0.951062 0.00144244
391 1 0.745581 0.901622 0.0476701
392 1 0.700001 0.952687 0.0491516
393 1 0.796611 0.904528 0.00133834
394 1 0.842764 0.954145 0.999972
395 1 0.848038 0.903244 0.0508192
396 1 0.796758 0.949005 0.0505057
397 1 0.900569 0.901984 0.999734
398 1 0.951733 0.948739 0.996645
399 1 0.948838 0.899901 0.0473457
400 1 0.898923 0.952268 0.0501419
401 1 0.000655059 0.997952 0.10153
402 1 0.0496357 0.0516496 0.0958799
403 1 0.0507018 0.00133188 0.14944
404 1 0.997491 0.0488116 0.147762
405 1 0.0984933 0.999506 0.101911
406 1 0.149237 0.0467816 0.102992
407 1 0.151096 0.999067 0.152471
408 1 0.101103 0.0475934 0.151772
409 1 0.198844 0.00153314 0.100462
410 1 0.247984 0.0483195 0.0988431
411 1 0.247126 0.997553 0.149575
412 1 0.199768 0.0481391 0.149496
413 1 0.300903 0.998951 0.0986657
414 1 0.350338 0.049251 0.0996717
415 1 0.348511 0.000830362 0.14736
416 1 0.295293 0.0514902 0.148703
417 1 0.399222 0.998938 0.102429
418 1 0.448817 0.0509055 0.103319
419 1 0.452793 0.0021836 0.155405
420 1 0.398012 0.0468483 0.153188
421 1 0.503275 0.0026405 0.102186
422 1 0.549254 0.0511456 0.099813
423 1 0.551528 0.999018 0.14902
424 1 0.499172 0.0510306 0.153931
425 1 0.604883 1.00018 0.0989356
426 1 0.650265 0.0557718 0.0994054
427 1 0.654098 -0.000493763 0.15331
428 1 0.602133 0.0519526 0.152243
429 1 0.70011 0.00237426 0.100389
430 1 0.751468 0.0507674 0.0995822
431 1 0.748921 0.999795 0.149314
432 1 0.701927 0.0486756 0.151649
433 1 0.797415 0.999936 0.0981024
434 1 0.847658 0.0479051 0.100603
435 1 0.847342 0.000183527 0.149986
436 1 0.800755 0.0503937 0.150775
437 1 0.89654 0.999569 0.100541
438 1 0.947367 0.0458225 0.0980511
439 1 0.951433 0.997874 0.149284
440 1 0.899063 0.0475457 0.148611
441 1 0.997897 0.0973165 0.0996725
442 1 0.0499702 0.148518 0.098027
443 1 0.0491673 0.0971063 0.148697
444 1 0.997752 0.14557 0.147985
445 1 0.101868 0.100214 0.103323
446 1 0.149842 0.150604 0.10268
447 1 0.151376 0.102628 0.150291
448 1 0.0990873 0.151801 0.152501
449 1 0.196634 0.100603 0.0994172
450 1 0.248756 0.149264 0.0980375
451 1 0.247639 0.0995877 0.145166
452 1 0.200083 0.149916 0.150878
453 1 0.297568 0.100661 0.0994907
454 1 0.348609 0.150742 0.0981894
455 1 0.347506 0.103748 0.14931
456 1 0.293909 0.150015 0.149512
457 1 0.401207 0.0989956 0.103966
458 1 0.451712 0.149462 0.101147
459 1 0.452537 0.102501 0.153613
460 1 0.400874 0.150141 0.150147
461 1 0.498275 0.100334 0.105268
462 1 0.547502 0.152717 0.10136
463 1 0.554482 0.100535 0.151224
464 1 0.501783 0.148885 0.15173
465 1 0.601952 0.101452 0.101878
466 1 0.650178 0.149177 0.103323
467 1 0.651479 0.102421 0.15245
468 1 0.601822 0.150177 0.152659
469 1 0.701873 0.102804 0.0966831
470 1 0.75094 0.147488 0.0987561
471 1 0.748644 0.0988181 0.149794
472 1 0.702471 0.154099 0.148739
473 1 0.800507 0.0986633 0.10089
474 1 0.849227 0.15049 0.102109
475 1 0.849614 0.0995351 0.153127
476 1 0.800803 0.148761 0.149204
477 1 0.896118 0.0984958 0.101672
478 1 0.949505 0.146259 0.0992356
479 1 0.949197 0.0971914 0.148524
480 1 0.898457 0.150499 0.149677
481 1 0.996201 0.197333 0.0988145
482 1 0.0500513 0.249227 0.101471
483 1 0.0484422 0.201236 0.149628
484 1 0.999922 0.250504 0.148236
485 1 0.0972685 0.200136 0.100963
486 1 0.14756 0.248216 0.10215
487 1 0.150595 0.197784 0.152695
488 1 0.101632 0.248624 0.152185
489 1 0.200398 0.200056 0.0995117
490 1 0.25076 0.251197 0.097196
491 1 0.248039 0.198261 0.149532
492 1 0.199877 0.248609 0.151166
493 1 0.300173 0.199067 0.101253
494 1 0.351465 0.247872 0.101865
495 1 0.351435 0.200654 0.150801
496 1 0.301367 0.251294 0.148589
497 1 0.399431 0.200368 0.101038
498 1 0.449648 0.246125 0.101844
499 1 0.451191 0.198467 0.15334
500 1 0.397245 0.249911 0.152285
501 1 0.502412 0.202739 0.104021
502 1 0.553272 0.24905 0.103752
503 1 0.551079 0.200028 0.154461
504 1 0.501904 0.250299 0.151911
505 1 0.602035 0.200356 0.105642
506 1 0.648426 0.246574 0.099811
507 1 0.652437 0.198757 0.152214
508 1 0.599129 0.250039 0.152973
509 1 0.704359 0.197959 0.0998692
510 1 0.750725 0.244908 0.0992178
511 1 0.753002 0.200514 0.152499
512 1 0.699097 0.248141 0.150398
513 1 0.798833 0.199976 0.100022
514 1 0.850698 0.247928 0.0966485
515 1 0.850288 0.200104 0.146159
516 1 0.801873 0.248539 0.150301
517 1 0.903945 0.19753 0.0984035
518 1 0.947668 0.2496 0.0971978
519 1 0.951119 0.200487 0.149535
520 1 0.900092 0.2487 0.149168
521 1 0.999332 0.299549 0.0972423
522 1 0.0530664 0.353719 0.0985027
523 1 0.0491169 0.299739 0.153175
524 1 0.00152277 0.352512 0.150687
525 1 0.102334 0.299061 0.104699
526 1 0.152378 0.352577 0.099632
527 1 0.151112 0.298744 0.150616
528 1 0.105094 0.353674 0.15043
529 1 0.200557 0.299462 0.0997523
530 1 0.248203 0.348738 0.101528
531 1 0.252728 0.300468 0.152598
532 1 0.197727 0.349416 0.152155
533 1 0.300028 0.301732 0.101262
534 1 0.3526 0.349337 0.104083
535 1 0.351061 0.303968 0.154037
536 1 0.299821 0.35044 0.150568
537 1 0.400701 0.296613 0.0994507
538 1 0.451315 0.34641 0.101721
539 1 0.447638 0.302134 0.151385
540 1 0.400316 0.350232 0.150828
541 1 0.49919 0.298416 0.102111
542 1 0.549738 0.347451 0.101887
543 1 0.55021 0.300174 0.155113
544 1 0.499603 0.351478 0.147691
545 1 0.599412 0.296634 0.0987378
546 1 0.647851 0.349269 0.0991466
547 1 0.652914 0.300865 0.14706
548 1 0.599956 0.348071 0.150717
549 1 0.703851 0.298016 0.102403
550 1 0.749025 0.350191 0.103147
551 1 0.748774 0.301581 0.152821
552 1 0.697887 0.351599 0.148735
553 1 0.799963 0.29812 0.102695
554 1 0.848565 0.349503 0.102787
555 1 0.850804 0.298314 0.149453
556 1 0.799403 0.350362 0.149239
557 1 0.900454 0.299729 0.0996902
558 1 0.952203 0.352804 0.100903
559 1 0.951347 0.300369 0.151228
560 1 0.900396 0.349895 0.150746
561 1 0.999777 0.399217 0.0988925
562 1 0.0481898 0.447667 0.0972503
563 1 0.0520456 0.400809 0.149026
564 1 0.0014025 0.450123 0.147111
565 1 0.104776 0.398724 0.0999644
566 1 0.15023 0.45129 0.102394
567 1 0.150533 0.401735 0.15118
568 1 0.0988453 0.450003 0.151427
569 1 0.197924 0.40086 0.102218
570 1 0.247192 0.447438 0.101361
571 1 0.244359 0.401701 0.152504
572 1 0.20101 0.451956 0.150659
573 1 0.300459 0.400918 0.0983072
574 1 0.354006 0.449199 0.0981356
575 1 0.352097 0.404817 0.152644
576 1 0.30007 0.451403 0.148162
577 1 0.404439 0.400346 0.0975866
578 1 0.451327 0.450205 0.0974768
579 1 0.450858 0.39695 0.15028
580 1 0.407025 0.452873 0.149692
581 1 0.500549 0.400369 0.0971157
582 1 0.550876 0.450979 0.1003
583 1 0.552716 0.399001 0.152462
584 1 0.500174 0.448229 0.15207
585 1 0.597039 0.398718 0.098525
586 1 0.650758 0.448701 0.103428
587 1 0.648409 0.398734 0.149393
588 1 0.601814 0.446752 0.153103
589 1 0.697807 0.397598 0.0997761
590 1 0.747662 0.452986 0.0995911
591 1 0.746531 0.395518 0.151532
592 1 0.701392 0.447915 0.149578
593 1 0.800314 0.397585 0.0971086
594 1 0.84829 0.449136 0.0979461
595 1 0.850938 0.399432 0.151172
596 1 0.799552 0.449165 0.145211
597 1 0.89895 0.401553 0.0998858
598 1 0.95107 0.448769 0.0988506
599 1 0.952448 0.400924 0.149363
600 1 0.897663 0.450648 0.145522
601 1 0.000516856 0.498412 0.0971981
602 1 0.0489201 0.552514 0.0977189
603 1 0.0502018 0.501122 0.14766
604 1 0.998286 0.555589 0.147713
605 1 0.0994325 0.500782 0.102311
606 1 0.151494 0.55194 0.100143
607 1 0.148557 0.49927 0.148179
608 1 0.0989538 0.552522 0.1495
609 1 0.199134 0.503065 0.101459
610 1 0.249716 0.546961 0.0998454
611 1 0.249137 0.499361 0.149211
612 1 0.198389 0.54871 0.151631
613 1 0.29998 0.502347 0.100322
614 1 0.351919 0.549664 0.0997612
615 1 0.35236 0.496604 0.150214
616 1 0.303304 0.550361 0.150033
617 1 0.400571 0.501498 0.0937407
618 1 0.448942 0.54964 0.0984086
619 1 0.454687 0.503627 0.149465
620 1 0.4004 0.545609 0.146778
621 1 0.501413 0.496796 0.0983005
622 1 0.549067 0.548753 0.0973983
623 1 0.551969 0.499913 0.149914
624 1 0.50123 0.551181 0.148637
625 1 0.601971 0.49543 0.102121
626 1 0.653247 0.547153 0.0986843
627 1 0.650059 0.501826 0.149991
628 1 0.599148 0.547629 0.149042
629 1 0.700881 0.499811 0.0973643
630 1 0.752174 0.551561 0.0993333
631 1 0.750822 0.500046 0.148856
632 1 0.699098 0.550337 0.150397
633 1 0.79935 0.502146 0.0976849
634 1 0.848661 0.550634 0.100615
635 1 0.851041 0.500531 0.146859
636 1 0.800036 0.55029 0.148166
637 1 0.898528 0.49856 0.0966307
638 1 0.948641 0.551009 0.0959895
639 1 0.951335 0.500009 0.147935
640 1 0.901862 0.547061 0.149543
641 1 0.998914 0.599952 0.0949936
642 1 0.0474373 0.648739 0.0993601
643 1 0.051605 0.602747 0.150346
644 1 0.998885 0.651314 0.150815
645 1 0.0989299 0.603277 0.0978673
646 1 0.152276 0.652112 0.0987451
647 1 0.149697 0.602889 0.148057
648 1 0.0990047 0.653342 0.150552
649 1 0.20049 0.59981 0.101066
650 1 0.249349 0.649368 0.10405
651 1 0.252755 0.599119 0.150688
652 1 0.200532 0.654472 0.153187
653 1 0.300001 0.596514 0.103908
654 1 0.349105 0.648893 0.100572
655 1 0.34961 0.599009 0.152195
656 1 0.300535 0.651936 0.149039
657 1 0.398707 0.600227 0.101726
658 1 0.446836 0.648614 0.100073
659 1 0.448949 0.59901 0.149384
660 1 0.398828 0.644724 0.150856
661 1 0.500721 0.597671 0.100068
662 1 0.551259 0.647623 0.0954095
663 1 0.550629 0.599691 0.148964
664 1 0.500607 0.65003 0.14977
665 1 0.599 0.597958 0.0989909
666 1 0.644429 0.648311 0.100754
667 1 0.648764 0.597449 0.148885
668 1 0.599974 0.645822 0.152111
669 1 0.69643 0.599977 0.103266
670 1 0.746256 0.650881 0.101642
671 1 0.747783 0.600448 0.149941
672 1 0.69904 0.648633 0.149846
673 1 0.79972 0.600261 0.096213
674 1 0.848314 0.650039 0.0985303
675 1 0.851622 0.600422 0.150496
676 1 0.798669 0.647845 0.151864
677 1 0.899709 0.602185 0.0964549
678 1 0.951376 0.655076 0.100163
679 1 0.948075 0.604471 0.148724
680 1 0.900457 0.657223 0.148766
681 1 0.999878 0.703732 0.0991364
682 1 0.0496155 0.752978 0.103005
683 1 0.0466793 0.701088 0.150609
684 1 0.00160425 0.755458 0.150555
685 1 0.0993563 0.697504 0.0991385
686 1 0.147966 0.752251 0.101651
687 1 0.152607 0.703497 0.147338
688 1 0.0954612 0.751895 0.14787
689 1 0.203192 0.700853 0.0987438
690 1 0.251063 0.751636 0.0984606
691 1 0.252111 0.696709 0.147981
692 1 0.198211 0.750177 0.149643
693 1 0.302552 0.703459 0.101386
694 1 0.352161 0.751951 0.0975776
695 1 0.353704 0.699008 0.150405
696 1 0.300132 0.750135 0.149869
697 1 0.40089 0.699794 0.103064
698 1 0.450993 0.745416 0.102347
699 1 0.45042 0.698167 0.151436
700 1 0.400809 0.750104 0.151182
701 1 0.500975 0.699593 0.0986914
702 1 0.54837 0.750992 0.0978139
703 1 0.550466 0.700536 0.147558
704 1 0.499638 0.747884 0.153068
705 1 0.596136 0.69871 0.100158
706 1 0.647607 0.752148 0.100142
707 1 0.647676 0.700166 0.149191
708 1 0.600389 0.748893 0.1505
709 1 0.704193 0.701944 0.104869
710 1 0.75016 0.748794 0.0995171
711 1 0.752665 0.701826 0.150349
712 1 0.699932 0.750669 0.151012
713 1 0.79734 0.698164 0.100703
714 1 0.847821 0.750788 0.0977248
715 1 0.845943 0.699014 0.149572
716 1 0.798365 0.749959 0.149545
717 1 0.898742 0.700512 0.097778
718 1 0.952376 0.751688 0.0998085
719 1 0.953332 0.703109 0.150461
720 1 0.902094 0.748655 0.147972
721 1 0.997661 0.802073 0.10037
722 1 0.0500644 0.852118 0.0981191
723 1 0.0488224 0.801875 0.149344
724 1 0.999754 0.847641 0.14957
725 1 0.0998585 0.804473 0.103566
726 1 0.149498 0.849843 0.100958
727 1 0.148562 0.801199 0.152706
728 1 0.0980832 0.848962 0.150682
729 1 0.198167 0.801799 0.0998595
730 1 0.248848 0.849407 0.09858
731 1 0.250073 0.79904 0.147474
732 1 0.199524 0.850803 0.151031
733 1 0.299624 0.798077 0.0994804
734 1 0.347103 0.850694 0.100386
735 1 0.347806 0.802953 0.150631
736 1 0.298883 0.84893 0.149493
737 1 0.405737 0.801578 0.101738
738 1 0.450732 0.851 0.0997336
739 1 0.450664 0.805087 0.151015
740 1 0.39827 0.853315 0.151916
741 1 0.50046 0.801195 0.102778
742 1 0.552411 0.852516 0.104607
743 1 0.55091 0.797734 0.152863
744 1 0.500777 0.8474 0.154112
745 1 0.599048 0.800384 0.0989019
746 1 0.647929 0.849931 0.102586
747 1 0.650973 0.798768 0.156032
748 1 0.601988 0.846089 0.154852
749 1 0.699656 0.799874 0.101986
750 1 0.750377 0.848081 0.0999321
751 1 0.747151 0.8009 0.152815
752 1 0.701833 0.850697 0.151672
753 1 0.798414 0.797558 0.101884
754 1 0.84441 0.850144 0.100803
755 1 0.848769 0.799802 0.145872
756 1 0.797258 0.845983 0.151093
757 1 0.9011 0.79708 0.0975258
758 1 0.948603 0.851706 0.0995569
759 1 0.948485 0.799844 0.149851
760 1 0.896076 0.848023 0.148168
761 1 1.00029 0.899147 0.099116
762 1 0.0495311 0.951145 0.0977685
763 1 0.0485143 0.899116 0.146711
764 1 0.00319609 0.9505 0.149498
765 1 0.102605 0.899547 0.0976918
766 1 0.14667 0.952006 0.104059
767 1 0.147641 0.902629 0.150339
768 1 0.0984791 0.952066 0.150242
769 1 0.198869 0.899991 0.101096
770 1 0.249051 0.950514 0.101176
771 1 0.248273 0.900725 0.148949
772 1 0.201067 0.950459 0.148841
773 1 0.298589 0.901228 0.100413
774 1 0.348622 0.948911 0.10246
775 1 0.348384 0.899678 0.148738
776 1 0.300877 0.950954 0.149786
777 1 0.399917 0.902726 0.0997755
778 1 0.453962 0.95152 0.102909
779 1 0.451725 0.903229 0.151394
780 1 0.400577 0.952393 0.15219
781 1 0.501295 0.897418 0.102714
782 1 0.552058 0.953607 0.1005
783 1 0.547849 0.901021 0.151482
784 1 0.502784 0.950156 0.150749
785 1 0.599393 0.90137 0.100819
786 1 0.65109 0.949467 0.101071
787 1 0.65031 0.899959 0.151757
788 1 0.600965 0.951907 0.151829
789 1 0.70175 0.903524 0.10287
790 1 0.748674 0.950183 0.100934
791 1 0.749377 0.898989 0.152693
792 1 0.699432 0.951278 0.152144
793 1 0.79672 0.899803 0.0980691
794 1 0.845685 0.950566 0.0993031
795 1 0.848455 0.901536 0.149074
796 1 0.797614 0.946483 0.146497
797 1 0.897396 0.900801 0.0976033
798 1 0.94628 0.951816 0.0977662
799 1 0.947432 0.900444 0.145398
800 1 0.901793 0.951851 0.148215
801 1 0.00142536 0.999296 0.199755
802 1 0.0505679 0.0469181 0.200218
803 1 0.0535127 0.998776 0.253587
804 1 0.000791878 0.0504987 0.249519
805 1 0.100188 0.997302 0.198374
806 1 0.151043 0.0516592 0.202779
807 1 0.149426 0.000947143 0.252127
808 1 0.102789 0.0511035 0.254309
809 1 0.202277 0.999835 0.203013
810 1 0.247362 0.0528483 0.1974
811 1 0.244964 0.00187356 0.254001
812 1 0.198341 0.0533866 0.25161
813 1 0.299496 0.00139738 0.199562
814 1 0.349989 0.0475941 0.200446
815 1 0.349476 0.998134 0.250651
816 1 0.295976 0.0498548 0.251994
817 1 0.400711 0.00110905 0.203765
818 1 0.449489 0.0504442 0.204431
819 1 0.450505 0.998186 0.252562
820 1 0.399757 0.0523607 0.252375
821 1 0.502846 0.00180189 0.201801
822 1 0.550536 0.0502511 0.205462
823 1 0.552391 0.997799 0.249188
824 1 0.499029 0.0489567 0.255068
825 1 0.600774 1.00013 0.199299
826 1 0.651014 0.0510029 0.199894
827 1 0.656544 0.999321 0.247505
828 1 0.604768 0.0471926 0.25069
829 1 0.702301 0.99902 0.200484
830 1 0.748301 0.0487033 0.199765
831 1 0.751834 0.00104533 0.247734
832 1 0.698875 0.0522036 0.246692
833 1 0.801893 0.00141953 0.198936
834 1 0.8505 0.0472725 0.199096
835 1 0.849557 0.997471 0.24799
836 1 0.801061 0.0505688 0.247324
837 1 0.901188 -0.000838406 0.199015
838 1 0.95068 0.046808 0.200722
839 1 0.951212 0.0018001 0.249766
840 1 0.904261 0.0503164 0.248924
841 1 0.999042 0.0983416 0.198409
842 1 0.0469912 0.149192 0.196894
843 1 0.0504049 0.100538 0.249659
844 1 0.999067 0.148928 0.247816
845 1 0.10106 0.100313 0.203659
846 1 0.148744 0.150539 0.20217
847 1 0.149153 0.102572 0.251373
848 1 0.0947125 0.153133 0.250484
849 1 0.198566 0.10074 0.19921
850 1 0.249807 0.153248 0.20105
851 1 0.248491 0.102224 0.247333
852 1 0.196911 0.148468 0.248276
853 1 0.297797 0.0980178 0.201921
854 1 0.347116 0.150093 0.200467
855 1 0.346998 0.0983481 0.254537
856 1 0.300216 0.150227 0.252462
857 1 0.398341 0.101684 0.203006
858 1 0.449284 0.151916 0.203466
859 1 0.448652 0.0991391 0.255565
860 1 0.398483 0.148025 0.251744
861 1 0.50013 0.0979158 0.204449
862 1 0.551493 0.149573 0.202189
863 1 0.549603 0.101714 0.252788
864 1 0.497627 0.150118 0.251559
865 1 0.599566 0.0981015 0.204878
866 1 0.650906 0.150782 0.20216
867 1 0.649634 0.100067 0.249203
868 1 0.602422 0.149366 0.249545
869 1 0.698777 0.101235 0.20209
870 1 0.750225 0.147301 0.200594
871 1 0.747125 0.0998452 0.247529
872 1 0.700302 0.149644 0.250414
873 1 0.799548 0.101792 0.202596
874 1 0.850596 0.15244 0.199851
875 1 0.851867 0.0983372 0.249813
876 1 0.798655 0.151452 0.249769
877 1 0.902657 0.0999265 0.199208
878 1 0.949858 0.149842 0.198577
879 1 0.948233 0.0998669 0.248599
880 1 0.898923 0.15171 0.249267
881 1 0.998372 0.197261 0.199022
882 1 0.0499812 0.251203 0.200832
883 1 0.0473232 0.202813 0.251343
884 1 0.00165568 0.253411 0.250935
885 1 0.100798 0.198816 0.2022
886 1 0.150365 0.249688 0.200613
887 1 0.151674 0.199196 0.250366
888 1 0.0997756 0.249344 0.248593
889 1 0.198075 0.20159 0.202679
890 1 0.24905 0.249609 0.198259