ITEM: TIMESTEP
45400
ITEM: NUMBER OF ATOMS
4000
ITEM: BOX BOUNDS pp pp pp
0.0000000000000000e+00 1.6795961913825074e+01
0.0000000000000000e+00 1.6795961913825074e+01
0.0000000000000000e+00 1.6795961913825074e+01
ITEM: ATOMS id type xs ys zs
1 1 0.261548 0.232601 0.900518
2 1 0.159336 0.123592 0.800958
3 1 0.0267367 0.949616 0.0357841
4 1 0.3076 0.104304 0.212233
5 1 0.241566 0.900733 0.116738
6 1 0.314095 0.98987 0.965477
7 1 0.285943 0.898677 0.734764
8 1 0.050807 0.0054759 0.0380663
9 1 0.452265 0.0571208 0.149411
10 1 0.471718 0.215324 0.0731977
11 1 0.109802 0.839991 0.977162
12 1 0.396302 0.920083 0.795335
13 1 0.326385 0.17297 0.119833
14 1 0.589947 0.840922 0.8153
15 1 0.511841 0.214232 0.940667
16 1 0.161107 0.970212 0.0962109
17 1 0.401469 0.0592342 0.972679
18 1 0.3525 0.985661 0.734273
19 1 0.356852 0.988641 0.278718
20 1 0.366714 0.988679 0.160308
21 1 0.41627 0.912635 0.188822
22 1 0.551549 0.159387 0.938386
23 1 0.61778 0.187823 0.0189121
24 1 0.645955 0.0324408 0.975309
25 1 0.599206 0.706733 0.0367258
26 1 0.683961 0.0872902 0.141339
27 1 0.587571 0.0307509 0.988021
28 1 0.540578 0.801439 0.792077
29 1 0.403114 0.89069 0.0840815
30 1 0.737521 0.971517 0.833646
31 1 0.990508 0.960419 0.218724
32 1 0.869741 0.115641 0.199111
33 1 0.857502 0.961847 0.111338
34 1 0.853636 0.19889 0.897483
35 1 0.600588 0.896556 0.420807
36 1 0.746119 0.138998 0.978747
37 1 0.740802 0.48017 0.983751
38 1 0.630246 0.910607 0.916369
39 1 0.00443417 0.0164344 0.724355
40 1 0.942787 0.00340914 0.0390168
41 1 0.701244 0.102241 0.899861
42 1 0.93838 0.8853 0.553812
43 1 0.947018 0.220463 0.149774
44 1 0.257933 0.0653548 0.117671
45 1 0.0237686 0.766992 0.152072
46 1 0.603048 0.283352 0.0762846
47 1 0.366617 0.78219 0.0911054
48 1 0.156692 0.428098 0.173523
49 1 0.0974433 0.998616 0.887728
50 1 0.463718 0.931642 0.1072
51 1 0.471516 0.956743 0.290489
52 1 0.0200203 0.251862 0.0463118
53 1 0.311589 0.214938 0.0117202
54 1 0.362005 0.950745 0.840966
55 1 0.492728 0.271342 0.322858
56 1 0.430828 0.267523 0.129685
57 1 0.475296 0.211072 0.280992
58 1 0.763668 0.136768 0.88072
59 1 0.220681 0.0404647 0.0718848
60 1 0.221989 0.366985 0.150457
61 1 0.284782 0.495002 0.972357
62 1 0.366286 0.30085 0.130574
63 1 0.563892 0.237042 0.0761979
64 1 0.462055 0.0628411 0.679742
65 1 0.415637 0.726802 0.779971
66 1 0.687749 0.981074 0.0984446
67 1 0.498276 0.655348 0.0633518
68 1 0.979414 0.291432 0.975536
69 1 0.392952 0.967054 0.998918
70 1 0.826584 0.00433001 0.667676
71 1 0.785452 0.171412 0.92813
72 1 0.433807 0.209205 0.834116
73 1 0.0294315 0.211504 0.900651
74 1 0.826733 0.989259 0.157314
75 1 0.678917 0.436663 0.897454
76 1 0.601267 0.0793606 0.237379
77 1 0.622884 0.0139869 0.0320853
78 1 0.781168 0.0238758 0.215886
79 1 0.96273 0.0329227 0.846859
80 1 0.661041 0.290312 0.938706
81 1 0.287624 0.0640513 0.955313
82 1 0.976202 0.100201 0.995701
83 1 0.847494 0.0242611 0.202546
84 1 0.332152 0.337092 0.170077
85 1 0.847524 0.224589 0.609754
86 1 0.565042 0.391374 0.908823
87 1 0.589269 0.549682 0.73332
88 1 0.376594 0.00459392 0.960372
89 1 0.37444 0.121502 0.259108
90 1 0.113949 0.139438 0.845918
91 1 0.0142901 0.0648677 0.840483
92 1 0.362465 0.316779 0.04918
93 1 0.425176 0.163152 0.763241
94 1 0.332873 0.149555 0.884441
95 1 0.509989 0.174255 0.883923
96 1 0.570467 0.173522 0.109455
97 1 0.296156 0.179862 0.956394
98 1 0.541373 0.104626 0.221923
99 1 0.175927 0.118625 0.259332
100 1 0.644845 0.0851079 0.946391
101 1 0.589122 0.13654 0.74313
102 1 0.417241 0.0953112 0.830994
103 1 0.779421 0.211055 0.142446
104 1 0.566765 0.418689 0.0170564
105 1 0.312328 0.0774882 0.0907777
106 1 0.764781 0.147415 0.642405
107 1 0.825362 0.906741 0.194534
108 1 0.67542 0.257675 0.883178
109 1 0.102074 0.804235 0.781549
110 1 0.76204 0.251233 0.957903
111 1 0.863494 0.449269 0.898554
112 1 0.889631 0.18402 0.122127
113 1 0.955921 0.0431034 0.0982422
114 1 0.703036 0.52986 0.251188
115 1 0.779268 0.118413 0.177038
116 1 0.456826 0.443451 0.137115
117 1 0.970019 0.200843 0.208248
118 1 0.895934 0.958986 0.241066
119 1 0.917522 0.179739 0.250559
120 1 0.700524 0.354556 0.0849259
121 1 0.0655453 0.436813 0.138431
122 1 0.150211 0.375668 0.0819225
123 1 0.924201 0.249021 0.986198
124 1 0.156209 0.677698 0.881957
125 1 0.176953 0.219681 0.999334
126 1 0.172294 0.446971 0.10428
127 1 0.872302 0.0243832 0.564598
128 1 0.338652 0.379761 0.866135
129 1 0.54233 0.107779 0.761153
130 1 0.613762 0.182612 0.932109
131 1 0.881039 0.473565 0.658558
132 1 0.364241 0.560558 0.968016
133 1 0.102197 0.0645094 0.307738
134 1 0.0754754 0.443705 0.791559
135 1 0.251113 0.47229 0.92977
136 1 0.512018 0.0831843 0.139115
137 1 0.353316 0.0952053 0.955857
138 1 0.328089 0.257288 0.877388
139 1 0.720726 0.457811 0.304585
140 1 0.266794 0.277995 0.277082
141 1 0.563787 0.202678 0.73478
142 1 0.800308 0.480312 0.0226382
143 1 0.591893 0.350686 0.0466428
144 1 0.4931 0.906335 0.425619
145 1 0.858547 0.241426 0.784399
146 1 0.885286 0.582753 0.0145961
147 1 0.500398 0.415233 0.0972507
148 1 0.523644 0.364822 0.0102857
149 1 0.873584 0.247347 0.923739
150 1 0.872334 0.451938 0.170751
151 1 0.140399 0.0421703 0.191153
152 1 0.959196 0.564697 0.0191117
153 1 0.741912 0.60165 0.155657
154 1 0.67519 0.28233 0.826409
155 1 0.00824059 0.404418 0.885989
156 1 0.00829158 0.313877 0.0410447
157 1 0.0214661 0.337021 0.98515
158 1 0.274034 0.357272 0.808567
159 1 0.312136 0.272263 0.0380329
160 1 0.732095 0.490729 0.0470882
161 1 0.926499 0.114269 0.163146
162 1 0.0101989 0.356775 0.0811369
163 1 0.226585 0.603444 0.22483
164 1 0.121212 0.412831 0.126472
165 1 0.0303314 0.395878 0.9517
166 1 0.220713 0.616075 0.0419725
167 1 0.00110951 0.321865 0.233248
168 1 0.122107 0.46009 0.63407
169 1 0.228552 0.684021 0.986457
170 1 0.247353 0.571766 0.401374
171 1 0.25533 0.459656 0.0510962
172 1 0.174374 0.062485 0.305947
173 1 0.210788 0.27909 0.0905587
174 1 0.0870662 0.327698 0.166541
175 1 0.161118 0.396178 0.28724
176 1 0.33319 0.143248 0.0534095
177 1 0.545077 0.5179 0.844724
178 1 0.65195 0.585693 0.173828
179 1 0.203363 0.358646 0.842025
180 1 0.103487 0.253646 0.149903
181 1 0.235912 0.409165 0.0982298
182 1 0.790175 0.185995 0.858234
183 1 0.35805 0.360499 0.927912
184 1 0.183515 0.534719 0.763412
185 1 0.608423 0.527797 0.671654
186 1 0.810563 0.569292 0.163932
187 1 0.253731 0.396901 0.764574
188 1 0.526328 0.320996 0.903241
189 1 0.71262 0.231442 0.848583
190 1 0.850043 0.216986 0.16081
191 1 0.805485 0.262673 0.196803
192 1 0.724102 0.581937 0.239811
193 1 0.551115 0.129948 0.1705
194 1 0.763702 0.365687 0.0580602
195 1 0.778764 0.643103 0.319922
196 1 0.779233 0.185642 0.984462
197 1 0.666568 0.379705 0.199702
198 1 0.0834083 0.462054 0.268796
199 1 0.944636 0.25362 0.733727
200 1 0.752943 0.57183 0.67584
201 1 0.117411 0.424917 0.0662044
202 1 0.136871 0.680074 0.0472049
203 1 0.899643 0.772389 0.883764
204 1 0.131518 0.554084 0.82149
205 1 0.162799 0.729529 0.753619
206 1 0.251763 0.893453 0.932727
207 1 0.881095 0.618816 0.785342
208 1 0.0746603 0.504645 0.745096
209 1 0.174855 0.372046 0.396206
210 1 0.282155 0.741182 0.0966284
211 1 0.267571 0.434951 0.985589
212 1 0.255104 0.943567 0.159316
213 1 0.937611 0.271412 0.0965499
214 1 0.45102 0.660673 0.904238
215 1 0.350333 0.472453 0.846852
216 1 0.0427683 0.554149 0.82105
217 1 0.298164 0.41072 0.039027
218 1 0.644948 0.523845 0.148064
219 1 0.414017 0.782529 0.34953
220 1 0.137084 0.687459 0.249266
221 1 0.614597 0.421213 0.934417
222 1 0.703729 0.589875 0.00320925
223 1 0.748504 0.567358 0.0598074
224 1 0.402537 0.438425 0.0192536
225 1 0.60433 0.751839 0.981836
226 1 0.809552 0.204063 0.794944
227 1 0.407554 0.696139 0.992788
228 1 0.423619 0.482121 0.976607
229 1 0.108566 0.569035 0.987962
230 1 0.921307 0.604592 0.0981507
231 1 0.947997 0.421948 0.211463
232 1 0.511901 0.464737 0.203171
233 1 0.838469 0.626874 0.00897793
234 1 0.834751 0.602317 0.21503
235 1 0.127137 0.284717 0.997816
236 1 0.877943 0.719985 0.103302
237 1 0.808288 0.381871 0.164303
238 1 0.907622 0.733445 0.988572
239 1 0.944449 0.490128 0.0906851
240 1 0.836778 0.249208 0.313242
241 1 0.696743 0.967677 0.982151
242 1 0.071609 0.863797 0.745518
243 1 0.114479 0.616016 0.440889
244 1 0.0252964 0.895459 0.845433
245 1 0.147358 0.893412 0.842685
246 1 0.158915 0.745903 0.923121
247 1 0.0502312 0.699852 0.90621
248 1 0.78901 0.469116 0.0972647
249 1 0.337395 0.759389 0.127839
250 1 0.275204 0.661372 0.90452
251 1 0.174192 0.738881 0.995133
252 1 0.761572 0.875508 0.714921
253 1 0.334159 0.620737 0.189092
254 1 0.421467 0.627095 0.156844
255 1 0.597457 0.442798 0.095198
256 1 0.534734 0.59522 0.161623
257 1 0.52426 0.539613 0.1868
258 1 0.206472 0.861661 0.576693
259 1 0.28903 0.545429 0.116385
260 1 0.294798 0.556799 0.228319
261 1 0.429277 0.734281 0.868946
262 1 0.66859 0.604185 0.240676
263 1 0.403606 0.441102 0.200137
264 1 0.45761 0.63276 0.240905
265 1 0.57909 0.257951 0.954023
266 1 0.997997 0.709679 0.344733
267 1 0.54469 0.624832 0.109876
268 1 0.876188 0.304342 0.0887623
269 1 0.119181 0.470276 0.167865
270 1 0.960548 0.370023 0.186686
271 1 0.96189 0.242861 0.338003
272 1 0.941008 0.455449 0.758336
273 1 0.891584 0.502831 0.890007
274 1 0.674716 0.92773 0.661469
275 1 0.820837 0.367178 0.04844
276 1 0.682751 0.58876 0.061189
277 1 0.975978 0.618216 0.989751
278 1 0.796609 0.520213 0.792617
279 1 0.546875 0.580887 0.836624
280 1 0.552744 0.680389 0.0853913
281 1 0.931209 0.889707 0.142773
282 1 0.186582 0.232423 0.834641
283 1 0.914639 0.771745 0.0754404
284 1 0.933487 0.86707 0.613311
285 1 0.772559 0.821866 0.317345
286 1 0.414056 0.541437 0.940581
287 1 0.127533 0.919803 0.0903005
288 1 0.138745 0.637701 0.837219
289 1 0.5781 0.920997 0.137492
290 1 0.576286 0.851616 0.663425
291 1 0.350609 0.0382229 0.927162
292 1 0.532456 0.866928 0.989999
293 1 0.440589 0.652511 0.096817
294 1 0.640385 0.775544 0.806092
295 1 0.44625 0.909186 0.273099
296 1 0.322884 0.772708 0.0335107
297 1 0.807907 0.640725 0.114984
298 1 0.389255 0.753228 0.0114563
299 1 0.439242 0.769221 0.0618896
300 1 0.0911034 0.0907067 0.90307
301 1 0.338807 0.690997 0.887269
302 1 0.733405 0.766724 0.953502
303 1 0.859292 0.785412 0.208137
304 1 0.471091 0.906569 0.907161
305 1 0.220229 0.381853 0.0127818
306 1 0.569197 0.698088 0.680643
307 1 0.864868 0.915159 0.995859
308 1 0.432 0.71376 0.0820196
309 1 0.874115 0.613532 0.960557
310 1 0.965578 0.0422402 0.989024
311 1 0.175309 0.540179 0.41147
312 1 0.514374 0.65339 0.20663
313 1 0.735507 0.521093 0.0964158
314 1 0.8711 0.796959 0.945597
315 1 0.439508 0.0267794 0.201927
316 1 0.760497 0.678889 0.205975
317 1 0.81815 0.778184 0.753516
318 1 0.690234 0.756617 0.83555
319 1 0.0830764 0.476399 0.983165
320 1 0.704433 0.825761 0.81437
321 1 0.0353469 0.838095 0.808946
322 1 0.667309 0.859753 0.890271
323 1 0.275749 0.800381 0.99493
324 1 0.804294 0.733116 0.223015
325 1 0.998901 0.589622 0.0984057
326 1 0.995128 0.719106 0.808129
327 1 0.99779 0.663479 0.937747
328 1 0.216285 0.803365 0.161586
329 1 0.955374 0.805407 0.0459571
330 1 0.274789 0.0110085 0.073948
331 1 0.468934 0.874798 0.986338
332 1 0.209857 0.882434 0.192809
333 1 0.282315 0.957156 0.763257
334 1 0.431948 0.954122 0.871836
335 1 0.455535 0.978503 0.1549
336 1 0.0760346 0.908531 0.269487
337 1 0.336215 0.808786 0.911665
338 1 0.180283 0.872368 0.974788
339 1 0.543112 0.889304 0.304708
340 1 0.0917789 0.873778 0.131868
341 1 0.52736 0.763597 0.00606436
342 1 0.462244 0.894108 0.0547805
343 1 0.541536 0.761586 0.117087
344 1 0.703739 0.956445 0.778653
345 1 0.680623 0.39284 0.940966
346 1 0.46889 0.238942 0.213539
347 1 0.411623 0.102715 0.311716
348 1 0.740988 0.893675 0.268666
349 1 0.321194 0.774806 0.212695
350 1 0.627329 0.842044 0.713017
351 1 0.853893 0.612076 0.150506
352 1 0.941319 0.94751 0.179214
353 1 0.683811 0.803764 0.878985
354 1 0.622142 0.809879 0.969713
355 1 0.611631 0.874463 0.995987
356 1 0.676183 0.0404311 0.335317
357 1 0.633092 0.942986 0.973219
358 1 0.992162 0.802873 0.787155
359 1 0.840381 0.843168 0.911817
360 1 0.988015 0.21056 0.0926857
361 1 0.234303 0.795226 0.101881
362 1 0.137545 0.528679 0.617693
363 1 0.0417679 0.837005 0.122561
364 1 0.426992 0.114953 0.957589
365 1 0.837958 0.126439 0.00597188
366 1 0.313662 0.0503749 0.747225
367 1 0.105178 0.0074228 -0.000874245
368 1 0.12149 0.162077 0.436033
369 1 0.29631 0.242258 0.956671
370 1 0.215368 0.441452 0.0105245
371 1 0.509483 0.210737 0.141244
372 1 0.982015 0.769836 0.1047
373 1 0.107346 0.451255 0.698324
374 1 0.0751557 0.720503 0.466021
375 1 0.420309 0.481175 0.0604846
376 1 0.100475 0.967164 0.121618
377 1 0.468054 0.73868 0.00550405
378 1 0.394597 0.0289059 0.0324257
379 1 0.494384 0.205806 0.337562
380 1 0.313936 0.748382 0.976314
381 1 0.681782 0.743241 0.187051
382 1 0.611769 0.101956 0.422983
383 1 0.727283 0.060652 0.235038
384 1 0.540758 0.926568 0.457943
385 1 0.765901 0.836236 0.0517492
386 1 0.591694 0.242041 0.0200626
387 1 0.451844 0.945646 0.780801
388 1 0.256322 0.0777378 0.188148
389 1 0.687007 0.138643 0.771594
390 1 0.794743 0.0124806 0.86346
391 1 0.5216 0.942539 0.00043008
392 1 0.560135 0.990936 0.42705
393 1 0.986726 0.0233285 0.783826
394 1 0.0504348 0.278434 0.890449
395 1 0.539587 0.449597 0.075721
396 1 0.915736 0.136332 0.0759192
397 1 0.294071 0.34933 0.91219
398 1 0.214381 0.854509 0.114105
399 1 0.415919 0.310401 0.0821905
400 1 0.696274 0.908543 0.00838119
401 1 0.0734065 0.241518 0.815719
402 1 0.181716 0.2704 0.953342
403 1 0.336996 0.721799 0.0654169
404 1 0.802371 0.0484117 0.16002
405 1 0.168194 0.23751 0.327875
406 1 0.398214 0.121409 0.00383053
407 1 0.226927 0.967512 0.104494
408 1 0.549846 0.216317 0.239802
409 1 0.959191 0.250399 0.0416889
410 1 0.161184 0.358694 0.146059
411 1 0.124747 0.0158277 0.258791
412 1 0.327299 0.977596 0.210642
413 1 0.137695 0.950181 0.819191
414 1 0.384083 0.81037 0.0406347
415 1 0.586606 0.732276 0.886239
416 1 0.482784 0.100966 0.256152
417 1 0.530425 0.626935 0.256246
418 1 0.514152 0.990037 0.171289
419 1 0.224622 0.244142 0.259167
420 1 0.213088 0.0881493 0.0386844
421 1 0.509945 0.0272987 0.122241
422 1 0.681415 0.936923 0.333999
423 1 0.861606 0.610093 0.0615739
424 1 0.448151 0.979599 0.491854
425 1 0.376074 0.103572 0.360376
426 1 0.493812 0.0498167 0.196025
427 1 0.866686 0.737534 0.161736
428 1 0.391036 0.995245 0.88768
429 1 0.615402 0.421036 0.195243
430 1 0.0209541 0.0597227 0.0162719
431 1 0.751241 0.819098 0.995646
432 1 0.408144 0.135851 0.209472
433 1 0.668507 0.764467 1.00029
434 1 0.996088 0.0964612 0.148104
435 1 0.652855 0.234535 0.238404
436 1 0.760931 0.112618 0.272469
437 1 0.792035 0.128869 0.829276
438 1 0.506268 0.28257 0.843479
439 1 0.967645 0.979023 0.881802
440 1 0.509606 0.0235034 0.313572
441 1 0.963531 0.0870412 0.050615
442 1 0.0523793 0.0724278 0.144316
443 1 0.0671366 0.252562 0.0941842
444 1 0.062646 0.96368 0.975203
445 1 0.0907351 0.1462 0.664691
446 1 0.271078 0.15088 0.119524
447 1 0.934288 0.139097 0.303227
448 1 0.465585 0.145894 0.00177535
449 1 0.0115666 0.25909 0.232955
450 1 0.0771367 0.0367467 0.418216
451 1 0.550869 0.0107531 0.0473281
452 1 0.332709 0.8312 0.338174
453 1 0.442414 0.342875 0.968833
454 1 0.281126 0.714256 0.0231194
455 1 0.343645 0.917762 0.424191
456 1 0.961123 0.508193 0.977826
457 1 0.162822 0.0675771 0.00958781
458 1 0.411867 0.273118 0.197168
459 1 0.774434 0.995357 0.269794
460 1 0.344206 0.467048 0.908546
461 1 0.417039 0.818507 0.272732
462 1 0.038822 0.0327085 0.248568
463 1 0.350234 0.761297 0.510383
464 1 0.767492 0.128897 0.442246
465 1 0.522965 0.839982 0.0426158
466 1 0.694933 0.205929 0.0696341
467 1 0.554443 0.905613 0.880971
468 1 0.683364 0.324832 0.317939
469 1 0.814366 0.260015 0.122881
470 1 0.499398 0.0944063 0.0208774
471 1 0.931561 0.200834 0.0783277
472 1 0.69098 0.173813 0.861165
473 1 0.962057 0.260924 0.442491
474 1 0.996839 0.353046 0.700368
475 1 0.939766 0.13714 0.903609
476 1 0.760575 0.997082 0.0135416
477 1 0.760852 0.953987 0.170265
478 1 0.15896 0.311057 0.103591
479 1 0.973134 0.170373 0.355604
480 1 0.585971 0.0888781 0.143115
481 1 0.281566 0.292827 0.878585
482 1 0.0881992 0.0767022 0.097706
483 1 0.135317 0.236911 0.206035
484 1 0.150775 0.208061 0.153395
485 1 0.0828746 0.23954 0.00254422
486 1 0.0897993 0.392497 0.175818
487 1 0.306036 0.488676 0.115917
488 1 0.985313 0.0222665 0.917019
489 1 0.942981 0.247563 0.88809
490 1 0.247153 0.311963 0.331327
491 1 0.543663 0.120448 0.0825049
492 1 0.333333 0.4181 0.147927
493 1 0.22282 0.0874142 0.800724
494 1 0.424005 0.843778 0.00539823
495 1 0.443075 0.274024 0.4295
496 1 0.502966 0.426626 0.0175351
497 1 0.0648328 0.943849 0.919337
498 1 0.201925 0.888999 0.255978
499 1 0.111646 0.983059 0.179207
500 1 0.35387 0.0776023 0.828962
501 1 0.540616 0.0509452 0.493677
502 1 0.377865 0.176885 0.0891716
503 1 0.769347 0.377204 0.286464
504 1 0.450373 0.537661 0.0431044
505 1 0.47527 0.996302 0.851068
506 1 0.542073 0.493271 0.126999
507 1 0.56166 0.056988 0.379442
508 1 0.797194 0.0395548 0.74447
509 1 0.699447 0.0895666 0.0285454
510 1 0.883186 0.0231791 0.0627372
511 1 0.654385 0.147528 0.3246
512 1 0.707406 0.566815 0.601569
513 1 0.658126 0.191166 0.500523
514 1 0.965813 0.479958 0.210414
515 1 0.00820794 0.424753 0.16647
516 1 0.725253 0.15561 0.922835
517 1 0.122122 0.115833 0.0175765
518 1 0.903856 0.853375 0.251639
519 1 0.818758 0.209187 0.275702
520 1 0.0517955 0.0895196 0.273687
521 1 0.150708 0.469784 0.953153
522 1 0.212862 0.442096 0.152579
523 1 0.837463 0.173423 0.204301
524 1 0.0857696 0.369116 0.0806837
525 1 0.0496873 0.186836 0.997199
526 1 0.42295 0.571936 0.998359
527 1 0.267603 0.116873 0.0666029
528 1 0.33584 0.298579 0.918983
529 1 0.563534 0.309034 0.23691
530 1 0.239514 0.262556 0.18702
531 1 0.0614469 0.350433 0.234124
532 1 0.127517 0.410697 0.749228
533 1 0.376555 0.422616 0.882696
534 1 0.0584909 0.771479 0.968119
535 1 0.41961 0.508795 0.125481
536 1 0.292731 0.304242 0.530513
537 1 0.466229 0.289562 0.901675
538 1 0.836582 0.428059 0.122007
539 1 0.632766 0.0401896 0.12657
540 1 0.251084 0.351449 0.067248
541 1 0.632753 0.455092 0.0374285
542 1 0.909356 0.172506 0.372614
543 1 0.398031 0.161877 0.295003
544 1 0.378977 0.282436 0.810016
545 1 0.320646 0.31969 0.0888481
546 1 0.542685 0.419251 0.962944
547 1 0.503722 0.372457 0.950251
548 1 0.905121 0.411961 0.0620653
549 1 0.647132 0.0345828 0.261955
550 1 0.910155 0.180546 0.186435
551 1 0.762471 0.465199 0.879983
552 1 0.87166 0.185336 0.0532114
553 1 0.840704 0.176818 0.954271
554 1 0.983333 0.444222 0.294633
555 1 0.870123 0.436668 0.254354
556 1 0.965658 0.12413 0.552793
557 1 0.0950712 0.400363 0.993603
558 1 0.720519 0.369487 0.982027
559 1 0.951818 0.0565563 0.173041
560 1 0.774559 0.215697 0.309925
561 1 0.703187 0.170156 0.266797
562 1 0.0399687 0.485935 0.101681
563 1 0.963436 0.344278 0.0230023
564 1 0.896166 0.326835 0.179168
565 1 0.304731 0.622671 0.110324
566 1 0.862879 0.724428 0.236492
567 1 0.408049 0.330014 0.776605
568 1 0.0606379 0.450524 0.197656
569 1 0.996013 0.294442 0.0953177
570 1 0.0798727 0.316108 0.108189
571 1 0.198709 0.350313 0.915885
572 1 0.174118 0.55847 0.979345
573 1 0.303301 0.609428 0.78123
574 1 0.0454108 0.2844 0.00296525
575 1 0.459109 0.349872 0.837073
576 1 0.180065 0.767368 0.0714162
577 1 0.210777 0.501797 0.988908
578 1 0.404345 0.0577519 0.664261
579 1 0.424315 0.404255 0.676512
580 1 0.206047 0.560421 0.0326934
581 1 0.497061 0.391994 0.88466
582 1 0.415762 0.406616 0.265711
583 1 0.649009 0.566341 0.971258
584 1 0.229571 0.189642 0.86215
585 1 0.526161 0.313775 0.969802
586 1 0.812419 0.248878 0.00871116
587 1 0.309099 0.375687 0.101922
588 1 0.327898 0.456948 0.199781
589 1 0.668367 0.195905 0.799158
590 1 0.655316 0.418858 0.992777
591 1 0.86268 0.378664 0.098115
592 1 0.638413 0.461776 0.859213
593 1 0.652879 0.311219 0.990657
594 1 0.732905 0.486803 0.189756
595 1 0.607239 0.125588 0.980641
596 1 0.61234 0.135074 0.191501
597 1 0.917101 0.423907 0.933197
598 1 0.941692 0.532478 0.205954
599 1 0.731921 0.238127 0.26144
600 1 0.874994 0.773239 0.0185801
601 1 0.105018 0.177223 0.184751
602 1 0.0844925 0.512529 0.201089
603 1 0.127103 0.169071 0.246294
604 1 0.15725 0.837437 0.219242
605 1 0.0518208 0.249174 0.946434
606 1 0.134707 0.621892 0.776527
607 1 0.135359 0.442193 0.00453596
608 1 0.224798 0.822255 0.034444
609 1 0.206619 0.602833 0.110846
610 1 0.144692 0.61757 0.0429994
611 1 0.258672 0.654321 0.211672
612 1 0.133515 0.793154 0.992145
613 1 0.14437 0.52683 0.0554977
614 1 0.216939 0.481905 0.271007
615 1 0.0955478 0.183806 0.0462283
616 1 0.295902 0.43581 0.101304
617 1 0.4808 0.416228 0.824053
618 1 0.336383 0.199817 0.911503
619 1 0.424104 0.534859 0.194798
620 1 0.0845011 0.328776 0.00192524
621 1 0.491571 0.57974 0.022436
622 1 0.673948 0.490705 0.298675
623 1 0.800474 0.562081 0.920842
624 1 0.363282 0.204293 0.262211
625 1 0.46964 0.599364 0.849828
626 1 0.827942 0.446586 0.326853
627 1 0.722275 0.326586 0.0259025
628 1 0.451085 0.357206 0.215577
629 1 0.561906 0.750619 0.176604
630 1 0.810413 0.615413 0.278153
631 1 0.946931 0.681941 0.824208
632 1 0.837533 0.499908 0.171672
633 1 0.0758789 0.382899 0.480754
634 1 0.0180232 0.66926 0.139061
635 1 0.68238 0.523155 0.0602807
636 1 0.758002 0.66788 0.139402
637 1 0.857731 0.363253 0.26967
638 1 0.799752 0.586873 0.980804
639 1 0.993602 0.117349 0.263753
640 1 0.0168127 0.471471 0.984517
641 1 0.172829 0.734164 0.154739
642 1 0.105486 0.843985 0.281777
643 1 0.33936 0.692612 0.950257
644 1 0.296521 0.847805 0.110226
645 1 0.0257709 0.480681 0.851583
646 1 0.365749 0.637692 0.134847
647 1 0.321806 0.776498 0.445952
648 1 0.037119 0.60244 0.209576
649 1 0.165626 0.872411 0.0734588
650 1 0.0540234 0.862305 0.175803
651 1 0.110131 0.619339 0.893915
652 1 0.311246 0.694323 0.119979
653 1 0.0146584 0.587083 0.0320939
654 1 0.0590557 0.293426 0.272196
655 1 0.115123 0.643785 0.375748
656 1 0.436214 0.545358 0.871254
657 1 0.473699 0.930409 0.835695
658 1 0.549022 0.768078 0.317986
659 1 0.403773 0.569753 0.150951
660 1 0.248438 0.750811 0.985436
661 1 0.456342 0.433174 0.216296
662 1 0.726207 0.61259 0.0998038
663 1 0.651888 0.0398294 0.401949
664 1 0.5722 0.554677 0.0570657
665 1 0.452392 0.626196 0.352739
666 1 0.794753 0.902935 0.243242
667 1 0.57173 0.49159 0.357324
668 1 0.942126 0.590139 0.202598
669 1 0.726624 0.583067 0.302921
670 1 0.926962 0.587461 0.962014
671 1 0.702711 0.334539 0.188493
672 1 0.77738 0.368266 0.996661
673 1 1.00132 0.537409 0.119645
674 1 0.0500994 0.712499 0.171341
675 1 0.0230928 0.536819 0.878401
676 1 0.969832 0.325322 0.152583
677 1 0.683242 0.669434 0.0670718
678 1 0.0423938 0.496999 0.920215
679 1 0.0574359 0.780289 0.0827008
680 1 0.999426 0.572689 0.247998
681 1 0.509822 0.931414 0.248801
682 1 0.824676 0.722778 0.791649
683 1 0.103601 0.738877 0.00884807
684 1 0.710029 0.00693224 0.284703
685 1 0.0758824 0.694398 0.971557
686 1 0.180717 0.718219 0.815024
687 1 0.0704687 0.992876 0.368852
688 1 0.180323 0.910959 0.125816
689 1 0.258149 0.548169 0.00461848
690 1 0.364014 0.0971766 0.12414
691 1 0.382076 0.993897 0.335948
692 1 0.893173 0.660282 0.100663
693 1 0.353033 0.691651 0.1709
694 1 0.590106 0.801052 0.16075
695 1 0.423727 0.602549 0.0534636
696 1 0.473715 0.821997 0.253282
697 1 0.719826 0.723882 0.0479682
698 1 0.353905 0.582975 0.896933
699 1 0.600092 0.545732 0.185652
700 1 0.556709 0.771201 0.378724
701 1 0.545835 0.0215651 0.929793
702 1 0.795958 0.730445 0.863626
703 1 0.490962 0.518866 0.802714
704 1 0.0558022 0.0145175 0.121277
705 1 0.247945 0.554489 0.946542
706 1 0.624234 0.796597 0.212725
707 1 0.772681 0.669465 0.380802
708 1 0.809867 0.752706 0.415021
709 1 0.559861 0.815918 0.20679
710 1 0.735755 0.81635 0.169048
711 1 0.47885 0.575013 0.959371
712 1 0.962391 0.774477 0.905456
713 1 0.691393 0.746265 0.908739
714 1 0.0662262 0.561891 0.931942
715 1 0.0103875 0.452971 0.359661
716 1 0.781798 0.565511 0.267231
717 1 0.595382 0.604732 0.156347
718 1 0.0419299 0.587628 0.14946
719 1 0.139268 0.96881 0.379027
720 1 0.77688 0.0378957 0.378806
721 1 0.0772374 0.0634354 0.0347053
722 1 0.374642 0.601977 0.0902962
723 1 0.269563 0.728585 0.311136
724 1 0.956092 0.677738 0.014545
725 1 0.0435688 0.0384305 0.884746
726 1 0.261272 0.24007 0.0981047
727 1 0.106133 0.739123 0.335775
728 1 0.993036 0.132699 0.877541
729 1 0.202016 0.684369 0.183837
730 1 0.274782 0.954654 0.0411159
731 1 0.632145 0.903662 0.214212
732 1 0.359638 0.774608 0.331159
733 1 0.520992 0.86072 0.175258
734 1 0.386147 0.661276 0.0665546
735 1 0.371601 0.754041 0.176242
736 1 0.32633 0.0397786 0.990662
737 1 0.662988 0.688196 0.20898
738 1 0.329465 0.235661 0.135124
739 1 0.66046 0.950719 0.0439216
740 1 0.328014 0.970276 0.905578
741 1 0.792287 0.615825 0.424444
742 1 0.627566 0.947195 0.278158
743 1 0.589835 0.852013 0.925742
744 1 0.529775 0.0528225 0.252375
745 1 0.510635 0.995447 0.486976
746 1 0.673712 0.793652 0.939605
747 1 0.577512 0.971048 0.987846
748 1 0.23406 0.63442 0.27774
749 1 0.765178 0.226049 0.0816309
750 1 0.570212 0.953269 0.0568333
751 1 0.592394 0.527672 -0.000575894
752 1 0.690284 0.867923 0.158899
753 1 0.610149 0.87193 0.875298
754 1 0.907228 0.196442 0.935819
755 1 0.756608 0.619987 0.0259942
756 1 0.962705 0.610537 0.0514259
757 1 0.14978 0.97092 0.0248762
758 1 0.776808 0.804596 0.118843
759 1 0.887998 0.805678 0.149465
760 1 0.947185 0.883838 0.913177
761 1 0.115586 0.560038 0.169001
762 1 0.202617 0.942654 0.366424
763 1 0.239551 0.99555 0.989169
764 1 0.895801 0.0595822 0.10466
765 1 0.100856 0.0728133 0.633256
766 1 0.201017 0.240792 0.894002
767 1 0.198537 0.904682 0.312521
768 1 0.0903178 0.941563 0.0398996
769 1 0.303111 0.855586 0.283431
770 1 0.910129 0.029577 0.93213
771 1 0.26346 0.878184 0.00290315
772 1 0.0114868 0.131066 0.938234
773 1 0.367519 0.0554022 0.289485
774 1 0.152433 0.141452 0.542343
775 1 0.496335 0.81503 0.466634
776 1 0.312254 0.037723 0.136041
777 1 0.558485 0.0892563 0.0364125
778 1 0.492605 0.829584 0.410196
779 1 0.352704 0.927283 0.0753026
780 1 0.393919 0.685818 0.854711
781 1 0.335689 0.154082 0.228272
782 1 0.422493 0.863001 0.230034
783 1 0.271857 0.995624 0.23212
784 1 0.62864 0.938859 0.866359
785 1 0.64035 0.653482 0.310519
786 1 0.807896 0.0986899 0.105903
787 1 0.71522 0.842825 0.280715
788 1 0.464746 0.0334457 0.0531655
789 1 0.662805 0.912471 0.417161
790 1 0.671678 0.984732 0.2316
791 1 0.838635 0.911746 0.898479
792 1 0.889403 0.0746044 0.23891
793 1 0.702928 0.942546 0.139622
794 1 0.61602 0.920681 0.0867361
795 1 0.201358 0.979399 0.164251
796 1 0.631729 0.866094 0.0477231
797 1 0.826789 0.0181647 0.102197
798 1 0.901122 0.240287 0.0478843
799 1 0.124129 0.0521236 0.382826
800 1 0.85505 0.011514 0.959455
801 1 0.918512 0.134763 0.833375
802 1 0.248935 0.935554 0.330793
803 1 0.215097 0.174013 0.100917
804 1 0.735372 0.121051 0.0746034
805 1 0.897876 0.00932674 0.167275
806 1 0.204464 0.329393 0.984751
807 1 0.798264 0.237182 0.359029
808 1 0.341736 0.914639 0.19788
809 1 0.881389 0.884211 0.0403832
810 1 0.308863 0.835813 0.398827
811 1 0.180345 0.0355113 0.402022
812 1 0.0920673 0.950475 0.323228
813 1 0.170962 0.156824 0.379807
814 1 0.140444 0.908452 0.0129361
815 1 0.252613 0.051523 0.475244
816 1 0.361225 0.919558 0.309702
817 1 0.19035 0.875042 0.517992
818 1 0.558099 0.679117 0.472832
819 1 0.369586 0.045859 0.443408
820 1 0.151088 0.106884 0.193857
821 1 0.878281 0.0677556 0.166543
822 1 0.657161 0.131922 0.497482
823 1 0.560718 0.887606 0.36463
824 1 0.574865 0.151641 0.448034
825 1 0.472952 0.0181565 0.258462
826 1 0.591284 0.666548 0.18169
827 1 0.874571 0.949306 0.165107
828 1 0.718377 0.832158 0.106648
829 1 0.746144 0.236864 0.196945
830 1 0.394365 0.101146 0.426232
831 1 0.571113 0.0197083 0.79241
832 1 0.627754 0.00193788 0.0851208
833 1 0.534413 0.439471 0.30045
834 1 0.896533 0.0780794 0.0370531
835 1 0.0270354 0.125185 0.031708
836 1 0.802975 0.862166 0.0908396
837 1 0.937864 0.805881 0.986271
838 1 0.856142 0.227931 0.225168
839 1 0.739547 0.174582 0.173769
840 1 0.909146 0.0117669 0.264621
841 1 0.955037 0.146765 0.124937
842 1 0.091195 0.023518 0.772764
843 1 0.168286 0.997347 0.223701
844 1 0.0876708 0.920488 0.540183
845 1 0.912892 0.986229 0.102086
846 1 0.133194 0.0927405 0.137241
847 1 0.917599 0.150852 0.433581
848 1 0.202718 0.735394 0.259736
849 1 0.932367 0.197022 0.00512756
850 1 0.448448 0.186867 0.174443
851 1 0.283805 0.0131208 0.621814
852 1 0.38451 0.0539512 0.161237
853 1 0.25683 0.960526 0.913594
854 1 0.536341 0.264494 0.15936
855 1 0.410915 0.0714963 0.101728
856 1 0.241277 0.250223 0.32514
857 1 0.219197 0.189363 0.339316
858 1 0.499747 0.274016 0.105836
859 1 0.671659 0.848354 0.394841
860 1 0.23862 0.124289 0.495767
861 1 0.524065 0.804069 0.929586
862 1 0.70409 0.222158 0.494328
863 1 0.434853 0.791523 0.436804
864 1 0.603964 0.339699 0.286697
865 1 0.577887 0.30862 0.173529
866 1 0.83548 0.119417 0.933775
867 1 0.66992 0.707033 0.313686
868 1 0.69331 0.270272 0.338998
869 1 0.657095 0.254441 0.108471
870 1 0.534533 0.0544248 0.985889
871 1 0.668587 0.141787 0.167176
872 1 0.931154 0.806075 0.298085
873 1 0.0462114 0.190605 0.0806702
874 1 0.816659 0.144823 0.0667754
875 1 0.602001 0.79563 0.27271
876 1 0.990339 0.885424 0.0389153
877 1 0.772755 0.28542 0.324964
878 1 0.889279 0.972153 0.0391772
879 1 0.175623 0.137395 0.977298
880 1 0.997019 0.904114 0.356864
881 1 0.865538 0.8674 0.437333
882 1 0.670184 0.346374 0.255051
883 1 0.107041 0.244592 0.467951
884 1 0.158829 0.470253 0.0534857
885 1 0.18611 0.504505 0.165597
886 1 0.789351 0.159247 0.295391
887 1 0.201064 0.0741662 0.16078
888 1 0.78739 0.260601 0.266842
889 1 0.243127 0.225248 0.040217
890 1 0.850442 0.342811 0.98535
891 1 0.429823 0.396725 0.169873
892 1 0.475583 0.303873 0.171771
893 1 0.133891 0.230884 0.0404495
894 1 0.190048 0.453544 0.318996
895 1 0.498287 0.977661 0.384138
896 1 0.0928799 0.231285 0.313374
897 1 0.378512 0.0022252 0.218628
898 1 0.547724 0.237512 0.356673
899 1 0.334408 0.830604 0.165176
900 1 0.590671 0.145419 0.505153
901 1 0.762036 0.23515 0.530723