ITEM: TIMESTEP
22200
ITEM: NUMBER OF ATOMS
4000
ITEM: BOX BOUNDS pp pp pp
0.0000000000000000e+00 1.6795961913825074e+01
0.0000000000000000e+00 1.6795961913825074e+01
0.0000000000000000e+00 1.6795961913825074e+01
ITEM: ATOMS id type xs ys zs
1 1 0.015453 0.996505 0.00176284
2 1 0.0607825 0.0438543 0.00203999
3 1 0.0493829 5.35619e-05 0.0597874
4 1 0.00613072 0.0444284 0.0437662
5 1 0.106901 0.991537 0.991409
6 1 0.151177 0.0438749 0.996871
7 1 0.152026 0.00104343 0.0514934
8 1 0.104129 0.0472301 0.0482367
9 1 0.198031 0.993183 0.00804121
10 1 0.253561 0.0414788 0.994782
11 1 0.260597 0.0071587 0.0493351
12 1 0.202944 0.0484756 0.0450172
13 1 0.306435 0.00254315 0.998961
14 1 0.353525 0.0517178 0.988557
15 1 0.343311 0.996328 0.0512452
16 1 0.312683 0.0567246 0.0400156
17 1 0.388937 0.994695 0.00183035
18 1 0.435232 0.0479075 0.994433
19 1 0.439575 0.990299 0.0424518
20 1 0.393502 0.0416102 0.0466782
21 1 0.487408 0.00164078 0.000702923
22 1 0.546691 0.0568272 0.98404
23 1 0.534398 0.0219069 0.0315211
24 1 0.479568 0.0482055 0.0401522
25 1 0.600032 0.997018 0.993573
26 1 0.659015 0.0545345 0.00317025
27 1 0.643579 0.00470162 0.0447501
28 1 0.598336 0.0532192 0.0545954
29 1 0.696117 0.992844 0.995185
30 1 0.737565 0.0391013 0.00158412
31 1 0.742356 1.00033 0.0569152
32 1 0.697655 0.0402457 0.0509858
33 1 0.786809 0.994486 0.00249269
34 1 0.845168 0.0522351 0.996917
35 1 0.842494 0.00798768 0.0424053
36 1 0.790057 0.0469426 0.0435758
37 1 0.891036 0.00789988 0.997357
38 1 0.943982 0.0441505 0.0105569
39 1 0.94732 0.987667 0.0527833
40 1 0.89127 0.0569041 0.0466136
41 1 0.00354741 0.0942129 0.998416
42 1 0.0490923 0.139855 0.997142
43 1 0.0480117 0.0982006 0.0584052
44 1 0.998478 0.144009 0.0376999
45 1 0.107316 0.0894318 0.00220206
46 1 0.155301 0.140416 0.999268
47 1 0.151225 0.0892358 0.0454835
48 1 0.0985181 0.151019 0.0437483
49 1 0.202115 0.0972086 0.00303399
50 1 0.243029 0.145591 0.00221407
51 1 0.258273 0.0922566 0.0428412
52 1 0.202741 0.152975 0.0488859
53 1 0.298711 0.102237 0.987929
54 1 0.355464 0.148451 0.00330675
55 1 0.355976 0.0897609 0.0588335
56 1 0.312461 0.132168 0.0456401
57 1 0.40208 0.0978767 0.998666
58 1 0.441726 0.157216 0.998864
59 1 0.445952 0.103469 0.0476874
60 1 0.402366 0.158511 0.0492663
61 1 0.494178 0.0964268 0.996519
62 1 0.540608 0.139139 0.996748
63 1 0.54532 0.0930471 0.0488519
64 1 0.502722 0.150868 0.045245
65 1 0.602544 0.0959277 0.995411
66 1 0.646765 0.142265 0.000766588
67 1 0.646191 0.097082 0.0553266
68 1 0.599747 0.143409 0.056501
69 1 0.699961 0.0958027 0.997152
70 1 0.74697 0.144843 0.00208645
71 1 0.745316 0.0900394 0.0441531
72 1 0.699621 0.143602 0.0466673
73 1 0.79878 0.101679 0.997257
74 1 0.849601 0.146941 0.00349806
75 1 0.839744 0.0976 0.0453591
76 1 0.796389 0.145267 0.0485046
77 1 0.896922 0.0892467 0.991678
78 1 0.939881 0.13965 0.00427625
79 1 0.954196 0.0968637 0.0516196
80 1 0.906356 0.146154 0.05756
81 1 0.00177591 0.192568 -0.000107737
82 1 0.0457247 0.24788 0.99288
83 1 0.0464319 0.188483 0.0511268
84 1 0.00476205 0.240183 0.048705
85 1 0.100835 0.199681 0.998151
86 1 0.151304 0.258143 0.999226
87 1 0.148325 0.194582 0.0459373
88 1 0.0860755 0.236947 0.042992
89 1 0.186909 0.196012 0.99473
90 1 0.242097 0.233459 0.00234622
91 1 0.259477 0.192566 0.0460293
92 1 0.199855 0.247352 0.0520611
93 1 0.310782 0.193805 0.00343056
94 1 0.341606 0.250604 0.00903304
95 1 0.342405 0.191621 0.0524023
96 1 0.294507 0.24238 0.0583926
97 1 0.386635 0.204425 0.989474
98 1 0.436697 0.245009 0.995379
99 1 0.448248 0.199742 0.0499678
100 1 0.393134 0.23992 0.0631637
101 1 0.508643 0.206096 0.00384635
102 1 0.549442 0.252923 0.00491451
103 1 0.546072 0.197746 0.0603747
104 1 0.500058 0.2468 0.0478043
105 1 0.589059 0.196522 0.00298141
106 1 0.627649 0.244525 0.989764
107 1 0.639489 0.198961 0.0400662
108 1 0.5908 0.243142 0.0469727
109 1 0.704988 0.193078 0.00712984
110 1 0.740961 0.240057 0.98862
111 1 0.748552 0.192113 0.0619369
112 1 0.682145 0.249864 0.0408594
113 1 0.791133 0.202968 0.00407914
114 1 0.845347 0.252852 0.00515381
115 1 0.850136 0.205379 0.0502839
116 1 0.800163 0.254961 0.0522834
117 1 0.896696 0.190558 0.00420924
118 1 0.94987 0.247694 0.997187
119 1 0.958131 0.194001 0.0540652
120 1 0.899974 0.250164 0.0514976
121 1 0.00560213 0.298288 0.998033
122 1 0.0454659 0.350077 0.00585906
123 1 0.0542024 0.295438 0.0443101
124 1 0.994413 0.343821 0.0578831
125 1 0.0962551 0.281843 0.991578
126 1 0.155632 0.34204 0.996831
127 1 0.154298 0.294331 0.0581569
128 1 0.104132 0.340992 0.0310782
129 1 0.207265 0.300757 0.00120559
130 1 0.255243 0.344328 0.993079
131 1 0.251154 0.303453 0.0436114
132 1 0.201204 0.343721 0.0445327
133 1 0.301036 0.299238 0.00253739
134 1 0.352873 0.357567 0.996621
135 1 0.346322 0.303557 0.0522272
136 1 0.29831 0.352883 0.0471624
137 1 0.389617 0.30521 0.00628078
138 1 0.442846 0.333527 0.996478
139 1 0.435848 0.290621 0.0444737
140 1 0.396502 0.353533 0.0508036
141 1 0.488294 0.283994 0.997826
142 1 0.541613 0.336096 0.00924607
143 1 0.552725 0.291457 0.0568133
144 1 0.497105 0.337163 0.0487447
145 1 0.600635 0.299145 0.996881
146 1 0.642565 0.345741 0.994538
147 1 0.635314 0.289813 0.0531281
148 1 0.596519 0.345276 0.0525396
149 1 0.685752 0.292386 0.998969
150 1 0.751 0.333801 0.996349
151 1 0.744346 0.300904 0.0563445
152 1 0.698373 0.335755 0.0437792
153 1 0.806365 0.29713 0.997307
154 1 0.857131 0.34873 0.0055899
155 1 0.849272 0.302577 0.0464987
156 1 0.796177 0.341509 0.05294
157 1 0.902825 0.302019 0.997505
158 1 0.960483 0.357546 0.994475
159 1 0.956857 0.29327 0.0419696
160 1 0.910569 0.345699 0.0445076
161 1 0.998864 0.40504 0.996225
162 1 0.0514983 0.448237 0.0027579
163 1 0.0472651 0.396916 0.0455394
164 1 0.995997 0.454022 0.0416287
165 1 0.10304 0.404164 -0.00105764
166 1 0.147452 0.447633 0.00234218
167 1 0.147046 0.389729 0.0435597
168 1 0.10689 0.44254 0.0574575
169 1 0.196917 0.390862 0.993323
170 1 0.243974 0.451815 0.988609
171 1 0.249393 0.403259 0.0339419
172 1 0.196494 0.436234 0.0481089
173 1 0.309928 0.400744 0.996325
174 1 0.352623 0.449938 0.999467
175 1 0.354964 0.401761 0.0481403
176 1 0.296395 0.450849 0.0394338
177 1 0.402714 0.392428 0.993914
178 1 0.45967 0.443769 0.00162682
179 1 0.450054 0.393208 0.0443112
180 1 0.403783 0.437828 0.0417282
181 1 0.50716 0.39321 1.00163
182 1 0.550542 0.447261 0.999693
183 1 0.546984 0.391016 0.0609001
184 1 0.50276 0.443931 0.0546089
185 1 0.588191 0.384469 0.00285469
186 1 0.639977 0.432475 0.0013553
187 1 0.645722 0.387967 0.0508723
188 1 0.593471 0.436104 0.0480747
189 1 0.691531 0.390083 0.00931625
190 1 0.731434 0.447932 0.992439
191 1 0.752012 0.388146 0.0591978
192 1 0.701838 0.444714 0.0507595
193 1 0.782292 0.402325 0.00773626
194 1 0.852158 0.45936 -0.00133435
195 1 0.846415 0.39526 0.0505321
196 1 0.793368 0.438005 0.0583865
197 1 0.909733 0.396121 0.00320362
198 1 0.948669 0.446731 -0.000247358
199 1 0.956413 0.403282 0.0514312
200 1 0.905449 0.441363 0.0514086
201 1 0.00611406 0.507992 0.00731742
202 1 0.0467801 0.555813 0.00879473
203 1 0.0597291 0.498455 0.0457936
204 1 0.996679 0.556793 0.0646319
205 1 0.110053 0.495042 0.000956577
206 1 0.14936 0.5477 0.993139
207 1 0.151328 0.493434 0.0554838
208 1 0.109509 0.540568 0.0414632
209 1 0.198738 0.500652 0.997063
210 1 0.247976 0.542997 0.00446642
211 1 0.245851 0.489944 0.0463428
212 1 0.196009 0.544694 0.0485565
213 1 0.30368 0.513279 0.00712864
214 1 0.356776 0.54402 0.996642
215 1 0.352012 0.498919 0.0508801
216 1 0.296261 0.54588 0.0582967
217 1 0.403027 0.493222 0.00230456
218 1 0.463788 0.546985 0.00529709
219 1 0.454335 0.488052 0.047395
220 1 0.396308 0.549771 0.0457821
221 1 0.505832 0.493916 -0.00018992
222 1 0.551788 0.545357 0.00860779
223 1 0.552484 0.491063 0.057782
224 1 0.507443 0.536885 0.0610848
225 1 0.596453 0.495211 0.995763
226 1 0.644904 0.55026 0.0139991
227 1 0.633419 0.486304 0.0477878
228 1 0.596779 0.55382 0.0508201
229 1 0.68084 0.490557 0.00501472
230 1 0.74487 0.539256 0.0150466
231 1 0.746759 0.482742 0.0578103
232 1 0.688674 0.542947 0.0546915
233 1 0.791816 0.480915 0.00752899
234 1 0.846846 0.537838 0.00802995
235 1 0.837139 0.485419 0.0518975
236 1 0.794142 0.541945 0.0693472
237 1 0.90599 0.491586 0.010621
238 1 0.949696 0.547067 0.00689262
239 1 0.948405 0.506801 0.0587191
240 1 0.891519 0.542515 0.0576257
241 1 0.994547 0.598018 0.00989302
242 1 0.0433107 0.642293 0.0123575
243 1 0.047702 0.598933 0.0633103
244 1 0.999099 0.637751 0.0650153
245 1 0.0909963 0.595597 0.00759972
246 1 0.145541 0.646891 0.00875405
247 1 0.144378 0.591835 0.0401087
248 1 0.098096 0.63782 0.0542771
249 1 0.208753 0.589717 0.00296739
250 1 0.240026 0.641926 -0.0011638
251 1 0.246153 0.584863 0.0580304
252 1 0.199134 0.638865 0.0506385
253 1 0.301038 0.588663 0.992398
254 1 0.349558 0.631908 0.0102302
255 1 0.33966 0.58297 0.0447267
256 1 0.296638 0.634438 0.0469842
257 1 0.404931 0.588991 0.99456
258 1 0.450813 0.646693 0.994053
259 1 0.447569 0.598063 0.0471167
260 1 0.406692 0.639083 0.0430661
261 1 0.496238 0.601894 -0.000616298
262 1 0.543824 0.648677 0.999209
263 1 0.539945 0.602605 0.0491472
264 1 0.493861 0.643756 0.0424397
265 1 0.590323 0.599515 0.994876
266 1 0.647761 0.638468 0.0110284
267 1 0.650286 0.592752 0.0622429
268 1 0.58883 0.641992 0.0516668
269 1 0.695021 0.595393 0.0102632
270 1 0.75084 0.64664 0.996698
271 1 0.738433 0.590681 0.0536362
272 1 0.709665 0.648204 0.0403213
273 1 0.78706 0.601088 0.00965839
274 1 0.84144 0.635878 0.0124912
275 1 0.845164 0.585599 0.05866
276 1 0.79332 0.65974 0.0531446
277 1 0.891378 0.588664 0.0108795
278 1 0.947636 0.641302 0.0110225
279 1 0.940709 0.592012 0.050046
280 1 0.891114 0.642762 0.0532914
281 1 0.00122746 0.68338 0.0216493
282 1 0.0498894 0.740279 0.016009
283 1 0.0510851 0.685554 0.0605448
284 1 0.00219979 0.750219 0.0532485
285 1 0.0972049 0.696668 0.0107122
286 1 0.151758 0.755601 0.000709151
287 1 0.149456 0.689902 0.05562
288 1 0.102995 0.731454 0.0572643
289 1 0.204248 0.695606 0.0192901
290 1 0.251172 0.742175 0.00599032
291 1 0.261549 0.687232 0.0472483
292 1 0.20083 0.745916 0.0486937
293 1 0.306064 0.693939 0.0055601
294 1 0.353156 0.744795 0.00585891
295 1 0.353455 0.68049 0.0420884
296 1 0.300877 0.741434 0.0606888
297 1 0.40871 0.698702 0.00445032
298 1 0.454136 0.74198 0.00732456
299 1 0.455374 0.699637 0.050278
300 1 0.396033 0.738416 0.0615118
301 1 0.506098 0.696386 0.996871
302 1 0.5441 0.747604 1.00051
303 1 0.53908 0.693264 0.0484295
304 1 0.503876 0.754111 0.046929
305 1 0.595592 0.704095 0.00556771
306 1 0.650558 0.743134 0.000963531
307 1 0.644554 0.702186 0.0535105
308 1 0.590579 0.749707 0.0507035
309 1 0.69692 0.701133 0.999307
310 1 0.7572 0.751692 0.0022335
311 1 0.747766 0.700537 0.0467802
312 1 0.709397 0.753493 0.0510952
313 1 0.797104 0.707744 -0.00115612
314 1 0.852628 0.747752 0.010282
315 1 0.850847 0.697297 0.0609991
316 1 0.804276 0.749022 0.048706
317 1 0.904433 0.701938 0.0115774
318 1 0.952789 0.741823 0.00524967
319 1 0.951701 0.691176 0.0588795
320 1 0.904185 0.753285 0.068371
321 1 0.994718 0.808997 0.00213468
322 1 0.0544894 0.843124 0.000124018
323 1 0.0407324 0.796695 0.0579029
324 1 1.00007 0.85493 0.057314
325 1 0.0948572 0.790629 0.0131821
326 1 0.149949 0.84043 0.0152214
327 1 0.151684 0.798501 0.0590172
328 1 0.101381 0.8425 0.0536204
329 1 0.208473 0.798868 0.00297181
330 1 0.244452 0.847717 0.0117794
331 1 0.248782 0.787586 0.0584015
332 1 0.20215 0.841003 0.0662064
333 1 0.293392 0.803598 0.00682862
334 1 0.347304 0.85675 0.00323465
335 1 0.337988 0.792857 0.051054
336 1 0.296683 0.845033 0.050319
337 1 0.38585 0.796537 0.0156192
338 1 0.444633 0.83577 0.0133881
339 1 0.444237 0.78545 0.0527788
340 1 0.388889 0.849904 0.0545086
341 1 0.493291 0.79948 0.00505096
342 1 0.544641 0.847001 0.00601373
343 1 0.543245 0.803248 0.0586909
344 1 0.499331 0.849631 0.0497424
345 1 0.59776 0.79647 0.00467526
346 1 0.641644 0.845614 0.00166543
347 1 0.659382 0.798786 0.0470007
348 1 0.594927 0.863009 0.0460819
349 1 0.70245 0.794138 0.00742418
350 1 0.735439 0.846992 0.0115352
351 1 0.760821 0.793798 0.0548577
352 1 0.698955 0.861061 0.0598298
353 1 0.806973 0.79822 0.00316124
354 1 0.853584 0.852607 0.99155
355 1 0.847679 0.800301 0.0473208
356 1 0.798416 0.845982 0.057556
357 1 0.897784 0.791753 0.00776997
358 1 0.946772 0.844876 0.00487457
359 1 0.958557 0.798397 0.0536127
360 1 0.904288 0.85733 0.0531584
361 1 0.997492 0.891878 0.996071
362 1 0.0533231 0.934701 -0.000355951
363 1 0.0556463 0.896819 0.048716
364 1 0.00417815 0.948358 0.0389649
365 1 0.103769 0.890743 0.00443079
366 1 0.152743 0.946125 0.00443564
367 1 0.155146 0.893545 0.0537416
368 1 0.095823 0.948801 0.0461603
369 1 0.197846 0.895593 0.00945204
370 1 0.247884 0.944158 0.0126979
371 1 0.246487 0.893594 0.0635437
372 1 0.200698 0.952997 0.0571112
373 1 0.28857 0.892201 0.00701869
374 1 0.342317 0.942935 0.002458
375 1 0.346046 0.898458 0.0581796
376 1 0.298455 0.941496 0.0501026
377 1 0.395779 0.908209 0.00185261
378 1 0.449445 0.949816 0.994374
379 1 0.440536 0.893891 0.0560678
380 1 0.389259 0.955503 0.0551857
381 1 0.488604 0.878067 0.997003
382 1 0.556922 0.956237 0.00522861
383 1 0.543975 0.90251 0.0430568
384 1 0.495635 0.954122 0.0458903
385 1 0.597479 0.897138 0.992318
386 1 0.651775 0.948265 0.000410406
387 1 0.645407 0.899095 0.0438703
388 1 0.604707 0.950061 0.040924
389 1 0.704501 0.89561 1.00041
390 1 0.742996 0.946886 0.00818958
391 1 0.747901 0.902521 0.0641909
392 1 0.693058 0.943704 0.0464519
393 1 0.789219 0.892158 0.0113351
394 1 0.836113 0.937223 0.995016
395 1 0.847869 0.901591 0.0587285
396 1 0.795297 0.953058 0.0503625
397 1 0.907808 0.89376 0.986556
398 1 0.943454 0.959382 0.992564
399 1 0.943232 0.918219 0.045522
400 1 0.888853 0.950833 0.0303509
401 1 0.00106773 0.98334 0.091465
402 1 0.0483221 0.0499043 0.103425
403 1 0.0610463 0.9924 0.145165
404 1 0.000748034 0.0345382 0.144784
405 1 0.102076 0.994381 0.0948839
406 1 0.157266 0.0494841 0.0959727
407 1 0.140779 0.999128 0.145749
408 1 0.0922244 0.0474667 0.152052
409 1 0.202077 0.000947961 0.106798
410 1 0.255105 0.0442262 0.0943195
411 1 0.251628 0.00164646 0.150836
412 1 0.197492 0.0490537 0.143041
413 1 0.29876 0.9872 0.109592
414 1 0.341807 0.0390963 0.111
415 1 0.353287 0.994917 0.159266
416 1 0.298512 0.0453878 0.156474
417 1 0.387481 0.993299 0.104815
418 1 0.443828 0.0516501 0.0901153
419 1 0.449039 0.995702 0.145018
420 1 0.401859 0.0483403 0.140052
421 1 0.492627 0.00589617 0.0908471
422 1 0.54453 0.0494637 0.0908309
423 1 0.537237 0.0065464 0.140333
424 1 0.489146 0.05422 0.136641
425 1 0.589239 0.00894082 0.0926802
426 1 0.646771 0.0471187 0.0947115
427 1 0.635735 0.994352 0.138698
428 1 0.591298 0.0472791 0.14634
429 1 0.695902 0.0140143 0.110549
430 1 0.744702 0.0520977 0.0975271
431 1 0.738789 0.00984272 0.154347
432 1 0.701019 0.064954 0.14874
433 1 0.786065 0.996746 0.106494
434 1 0.839975 0.0503537 0.0937378
435 1 0.839744 0.00133188 0.142358
436 1 0.793735 0.0453963 0.144563
437 1 0.890112 0.00425724 0.0978763
438 1 0.952403 0.0346598 0.0980483
439 1 0.949728 0.993815 0.149737
440 1 0.897271 0.0471549 0.146482
441 1 0.994429 0.0895794 0.0996264
442 1 0.059509 0.143773 0.0993872
443 1 0.0524365 0.0984333 0.148516
444 1 0.0108397 0.145421 0.150113
445 1 0.105311 0.0907995 0.099103
446 1 0.152381 0.141104 0.0986742
447 1 0.147874 0.0903843 0.151999
448 1 0.105846 0.137205 0.147756
449 1 0.205236 0.102831 0.0844688
450 1 0.25402 0.14427 0.0907149
451 1 0.24565 0.0927138 0.137811
452 1 0.194657 0.142968 0.148626
453 1 0.297891 0.0905756 0.105261
454 1 0.341696 0.143832 0.109158
455 1 0.345913 0.0961573 0.152178
456 1 0.291875 0.136262 0.160058
457 1 0.403374 0.0965554 0.0990468
458 1 0.436969 0.144512 0.101752
459 1 0.436224 0.103375 0.152357
460 1 0.391385 0.146296 0.156592
461 1 0.491795 0.102847 0.0948897
462 1 0.552827 0.147529 0.102098
463 1 0.534577 0.102111 0.144297
464 1 0.491743 0.149612 0.140427
465 1 0.600462 0.0934118 0.104957
466 1 0.646908 0.143812 0.104165
467 1 0.640269 0.0982878 0.154827
468 1 0.586729 0.141094 0.151237
469 1 0.698051 0.0979839 0.0909042
470 1 0.746811 0.142722 0.097867
471 1 0.756247 0.097568 0.148991
472 1 0.697529 0.137495 0.147093
473 1 0.795534 0.0976317 0.0960149
474 1 0.847433 0.147423 0.0973856
475 1 0.847591 0.0912979 0.148966
476 1 0.791022 0.148432 0.151529
477 1 0.890179 0.100351 0.0930817
478 1 0.950352 0.138886 0.108067
479 1 0.952472 0.0852833 0.145818
480 1 0.895466 0.138452 0.154336
481 1 0.00358406 0.18246 0.0943577
482 1 0.0569026 0.237676 0.0999068
483 1 0.0567771 0.197853 0.151496
484 1 0.0026979 0.240222 0.140681
485 1 0.101307 0.186132 0.0964033
486 1 0.143252 0.238816 0.0915234
487 1 0.146289 0.187822 0.151536
488 1 0.103242 0.239704 0.143197
489 1 0.191048 0.196494 0.102773
490 1 0.250561 0.233266 0.102317
491 1 0.248181 0.176996 0.150148
492 1 0.182739 0.250303 0.137481
493 1 0.296785 0.187508 0.109367
494 1 0.337205 0.240469 0.110494
495 1 0.336786 0.196185 0.161584
496 1 0.287388 0.237103 0.150942
497 1 0.390562 0.195528 0.111955
498 1 0.457063 0.251072 0.101526
499 1 0.442536 0.197559 0.153884
500 1 0.396779 0.255926 0.148447
501 1 0.496131 0.203789 0.102795
502 1 0.546157 0.249849 0.105137
503 1 0.549808 0.198571 0.145676
504 1 0.49219 0.249477 0.1543
505 1 0.597336 0.208716 0.102051
506 1 0.648153 0.244723 0.103194
507 1 0.645722 0.195837 0.151431
508 1 0.586599 0.261839 0.152006
509 1 0.69607 0.200502 0.0971611
510 1 0.751847 0.245769 0.0954873
511 1 0.74789 0.192099 0.137269
512 1 0.697746 0.242793 0.144639
513 1 0.802447 0.192495 0.0996519
514 1 0.852301 0.253261 0.0957295
515 1 0.841034 0.194882 0.14467
516 1 0.793619 0.240709 0.167846
517 1 0.893597 0.201356 0.0956171
518 1 0.95691 0.241024 0.0944028
519 1 0.944715 0.184305 0.153681
520 1 0.897457 0.24564 0.143252
521 1 0.991493 0.294403 0.0984905
522 1 0.045781 0.348571 0.086306
523 1 0.0457952 0.296055 0.139673
524 1 0.99128 0.337941 0.154773
525 1 0.103282 0.296069 0.0900612
526 1 0.15492 0.344728 0.0966153
527 1 0.138341 0.299081 0.147345
528 1 0.0899754 0.350907 0.143656
529 1 0.211982 0.284045 0.0964384
530 1 0.251461 0.35118 0.0931795
531 1 0.239512 0.302898 0.151331
532 1 0.19137 0.353747 0.147402
533 1 0.286077 0.286918 0.110131
534 1 0.346885 0.351252 0.0909825
535 1 0.33509 0.286995 0.148837
536 1 0.293647 0.350099 0.146472
537 1 0.399982 0.28932 0.0978516
538 1 0.44037 0.339432 0.103443
539 1 0.445965 0.298007 0.151401
540 1 0.39824 0.341781 0.153608
541 1 0.498351 0.295557 0.0981754
542 1 0.545896 0.340963 0.0990197
543 1 0.536185 0.296547 0.149304
544 1 0.488119 0.352096 0.156126
545 1 0.597268 0.297418 0.102275
546 1 0.650873 0.343835 0.0915645
547 1 0.651654 0.291923 0.145135
548 1 0.60408 0.343174 0.144968
549 1 0.697789 0.295921 0.106055
550 1 0.752347 0.341679 0.103395
551 1 0.748729 0.294788 0.157641
552 1 0.699461 0.346565 0.145978
553 1 0.806077 0.298058 0.112898
554 1 0.849888 0.343082 0.0988587
555 1 0.85649 0.295577 0.14624
556 1 0.798496 0.36345 0.16133
557 1 0.898936 0.29832 0.0990594
558 1 0.946273 0.342985 0.103829
559 1 0.943661 0.29174 0.147608
560 1 0.901529 0.350543 0.149461
561 1 0.0043346 0.401875 0.0879738
562 1 0.0469802 0.454554 0.0853522
563 1 0.0445887 0.404222 0.147209
564 1 0.999159 0.448362 0.152029
565 1 0.097453 0.382079 0.0850171
566 1 0.152748 0.443042 0.0996631
567 1 0.138731 0.397462 0.146225
568 1 0.084941 0.452269 0.145737
569 1 0.199427 0.389496 0.0923205
570 1 0.250024 0.443005 0.106323
571 1 0.241089 0.391887 0.143726
572 1 0.19449 0.437052 0.145628
573 1 0.302105 0.402296 0.0851138
574 1 0.362129 0.446926 0.0969925
575 1 0.347937 0.392708 0.154291
576 1 0.29298 0.445081 0.150023
577 1 0.407535 0.391048 0.101902
578 1 0.445435 0.453542 0.101998
579 1 0.446121 0.395137 0.150879
580 1 0.394956 0.440072 0.150598
581 1 0.493905 0.380845 0.0951346
582 1 0.547325 0.435434 0.103202
583 1 0.548673 0.386477 0.139887
584 1 0.493466 0.438182 0.141128
585 1 0.600785 0.397013 0.099396
586 1 0.65623 0.438934 0.0953478
587 1 0.643986 0.395258 0.147456
588 1 0.603623 0.44281 0.150174
589 1 0.700287 0.389528 0.0862161
590 1 0.739276 0.446205 0.106134
591 1 0.749607 0.39678 0.136106
592 1 0.70103 0.443232 0.150954
593 1 0.806492 0.39502 0.0996559
594 1 0.857124 0.441398 0.0946549
595 1 0.855362 0.398148 0.135479
596 1 0.805156 0.43965 0.16306
597 1 0.90167 0.394381 0.0913841
598 1 0.953313 0.451441 0.101243
599 1 0.962459 0.400644 0.143192
600 1 0.905326 0.439808 0.136032
601 1 0.998759 0.498015 0.0998074
602 1 0.0432839 0.542923 0.112249
603 1 0.0356106 0.495706 0.156466
604 1 0.989465 0.546345 0.171668
605 1 0.0938519 0.500214 0.106786
606 1 0.143309 0.545502 0.102346
607 1 0.143094 0.484473 0.15386
608 1 0.102807 0.539864 0.154175
609 1 0.200289 0.489637 0.101201
610 1 0.251367 0.545545 0.106037
611 1 0.238266 0.49537 0.154248
612 1 0.186261 0.534811 0.150548
613 1 0.294666 0.499726 0.107793
614 1 0.349627 0.548504 0.0999074
615 1 0.359341 0.491036 0.154181
616 1 0.293098 0.550786 0.154634
617 1 0.403545 0.495665 0.0960431
618 1 0.454854 0.534518 0.0996075
619 1 0.452001 0.490285 0.149195
620 1 0.408593 0.538395 0.151178
621 1 0.498975 0.489311 0.102887
622 1 0.556847 0.543792 0.105858
623 1 0.543587 0.492206 0.151715
624 1 0.496423 0.535566 0.150615
625 1 0.600099 0.493002 0.101801
626 1 0.642658 0.542648 0.110862
627 1 0.64681 0.494798 0.149564
628 1 0.596187 0.562426 0.162851
629 1 0.691328 0.493371 0.0983827
630 1 0.746787 0.535704 0.108259
631 1 0.752355 0.490275 0.148728
632 1 0.695592 0.534757 0.157068
633 1 0.797441 0.483343 0.106346
634 1 0.846315 0.538255 0.0985145
635 1 0.854098 0.476154 0.145444
636 1 0.815446 0.526788 0.149373
637 1 0.895272 0.493171 0.0970028
638 1 0.951649 0.548193 0.107297
639 1 0.949977 0.496873 0.144701
640 1 0.888395 0.538598 0.145727
641 1 0.994474 0.587903 0.126477
642 1 0.0526446 0.637867 0.117889
643 1 0.0683037 0.597979 0.159089
644 1 0.993116 0.650318 0.147199
645 1 0.0955531 0.588488 0.10436
646 1 0.146051 0.643461 0.110225
647 1 0.142535 0.595915 0.150736
648 1 0.0995179 0.649299 0.165165
649 1 0.195725 0.585521 0.109747
650 1 0.249003 0.638587 0.111272
651 1 0.240624 0.591253 0.156313
652 1 0.195439 0.639148 0.155108
653 1 0.299733 0.597098 0.0987179
654 1 0.353774 0.63243 0.0888335
655 1 0.349956 0.579954 0.152671
656 1 0.303594 0.64087 0.149532
657 1 0.412951 0.593292 0.0997232
658 1 0.470094 0.634027 0.0984812
659 1 0.459355 0.590921 0.147426
660 1 0.41046 0.64437 0.148774
661 1 0.505896 0.583915 0.0991153
662 1 0.548144 0.64219 0.100081
663 1 0.53686 0.596776 0.149855
664 1 0.497927 0.64849 0.156718
665 1 0.595277 0.599799 0.102446
666 1 0.666833 0.637547 0.101951
667 1 0.648642 0.599163 0.150392
668 1 0.589516 0.634483 0.16376
669 1 0.709725 0.58698 0.12156
670 1 0.736779 0.652091 0.105832
671 1 0.759996 0.601094 0.161071
672 1 0.70067 0.644803 0.163164
673 1 0.797065 0.597653 0.107739
674 1 0.853733 0.636847 0.0995879
675 1 0.847784 0.598207 0.157175
676 1 0.792083 0.652731 0.153781
677 1 0.899335 0.590383 0.102802
678 1 0.947808 0.637282 0.100307
679 1 0.939117 0.600204 0.153551
680 1 0.89872 0.652581 0.159457
681 1 1.00016 0.695922 0.108608
682 1 0.055126 0.73977 0.10484
683 1 0.0551484 0.699436 0.150883
684 1 0.00375972 0.74857 0.143067
685 1 0.103227 0.681909 0.103063
686 1 0.154088 0.737161 0.0947518
687 1 0.160072 0.688301 0.168765
688 1 0.106131 0.747917 0.137373
689 1 0.199603 0.690816 0.0958675
690 1 0.247405 0.734022 0.110944
691 1 0.248708 0.69132 0.153108
692 1 0.200526 0.745922 0.159564
693 1 0.302533 0.678504 0.0931962
694 1 0.351385 0.744104 0.100818
695 1 0.360156 0.697567 0.138189
696 1 0.306221 0.726449 0.143523
697 1 0.409103 0.680898 0.0967367
698 1 0.456294 0.74342 0.0986094
699 1 0.451926 0.689729 0.145258
700 1 0.406316 0.744242 0.149343
701 1 0.508648 0.685683 0.10552
702 1 0.54875 0.746684 0.0943421
703 1 0.547638 0.691056 0.159362
704 1 0.497528 0.737521 0.152996
705 1 0.600399 0.686462 0.106985
706 1 0.650613 0.748656 0.100486
707 1 0.648699 0.68925 0.150051
708 1 0.598079 0.741399 0.149851
709 1 0.700447 0.704634 0.101941
710 1 0.749946 0.748227 0.0988208
711 1 0.747955 0.700334 0.144812
712 1 0.700632 0.757777 0.144792
713 1 0.798931 0.700301 0.102679
714 1 0.842403 0.74892 0.104494
715 1 0.844568 0.682948 0.142645
716 1 0.795799 0.741693 0.150919
717 1 0.900348 0.68413 0.100817
718 1 0.956745 0.736036 0.101414
719 1 0.945578 0.691574 0.155843
720 1 0.904087 0.738585 0.137738
721 1 0.0133731 0.807093 0.111874
722 1 0.0511576 0.851906 0.0949642
723 1 0.0571944 0.803214 0.15309
724 1 0.00224992 0.853935 0.163278
725 1 0.103742 0.789282 0.0955735
726 1 0.147443 0.848673 0.107235
727 1 0.145017 0.794177 0.160587
728 1 0.093061 0.861132 0.146066
729 1 0.194617 0.787662 0.105836
730 1 0.257504 0.844624 0.10551
731 1 0.251403 0.797459 0.153106
732 1 0.196389 0.841847 0.146392
733 1 0.294176 0.784893 0.112909
734 1 0.347831 0.857036 0.108564
735 1 0.348212 0.792785 0.149096
736 1 0.294586 0.840823 0.15864
737 1 0.394522 0.799045 0.0983172
738 1 0.446069 0.835181 0.0890819
739 1 0.437262 0.796192 0.157682
740 1 0.395125 0.851754 0.153097
741 1 0.49494 0.789385 0.112021
742 1 0.561962 0.85363 0.10248
743 1 0.550712 0.797093 0.147573
744 1 0.492095 0.836795 0.155938
745 1 0.595161 0.79611 0.0938409
746 1 0.642423 0.845994 0.0929485
747 1 0.636203 0.800295 0.140123
748 1 0.598451 0.849682 0.152098
749 1 0.702421 0.796112 0.0995851
750 1 0.747165 0.84841 0.111938
751 1 0.749311 0.797407 0.159166
752 1 0.689317 0.844258 0.141652
753 1 0.798489 0.796389 0.105791
754 1 0.847904 0.843093 0.0976528
755 1 0.842703 0.794682 0.151606
756 1 0.801571 0.857174 0.150518
757 1 0.893938 0.803732 0.10352
758 1 0.962576 0.851693 0.107158
759 1 0.952381 0.78223 0.141693
760 1 0.891243 0.844669 0.157697
761 1 0.992662 0.910331 0.0953624
762 1 0.048871 0.93779 0.0922489
763 1 0.0414759 0.901855 0.145378
764 1 0.997197 0.946333 0.14575
765 1 0.102642 0.899045 0.100406
766 1 0.144803 0.947807 0.101665
767 1 0.151847 0.898958 0.142914
768 1 0.101112 0.941326 0.146494
769 1 0.1972 0.895521 0.102363
770 1 0.245439 0.941985 0.10978
771 1 0.241818 0.888441 0.153391
772 1 0.197586 0.942241 0.153816
773 1 0.299597 0.899425 0.109661
774 1 0.348938 0.944933 0.105763
775 1 0.348345 0.900104 0.152133
776 1 0.29278 0.946037 0.153792
777 1 0.40673 0.895311 0.106621
778 1 0.447364 0.955718 0.0943586
779 1 0.448925 0.894858 0.158388
780 1 0.406783 0.950633 0.14868
781 1 0.497063 0.904105 0.0892975
782 1 0.541655 0.958303 0.0933099
783 1 0.54407 0.902935 0.135745
784 1 0.483916 0.945195 0.137578
785 1 0.592981 0.91018 0.0911786
786 1 0.650972 0.948641 0.0955282
787 1 0.634898 0.906581 0.141861
788 1 0.582161 0.964293 0.146453
789 1 0.697792 0.904039 0.110129
790 1 0.731626 0.959632 0.10239
791 1 0.745566 0.899015 0.152781
792 1 0.692219 0.967643 0.161895
793 1 0.798248 0.906842 0.111971
794 1 0.844408 0.956822 0.102256
795 1 0.853474 0.892622 0.136782
796 1 0.789249 0.950457 0.157619
797 1 0.909861 0.89884 0.114945
798 1 0.945233 0.950098 0.109473
799 1 0.956621 0.900115 0.155714
800 1 0.891392 0.963484 0.143298
801 1 0.999317 0.00794784 0.202669
802 1 0.0430277 0.0526332 0.199588
803 1 0.0440099 0.0111398 0.250554
804 1 0.99548 0.0563787 0.244724
805 1 0.0985706 1.00048 0.198834
806 1 0.150788 0.0471561 0.210002
807 1 0.145043 0.000851449 0.254935
808 1 0.100241 0.0468463 0.252559
809 1 0.189763 0.995439 0.192192
810 1 0.245381 0.0479408 0.199809
811 1 0.246748 0.000605117 0.243027
812 1 0.199682 0.0438567 0.259413
813 1 0.291438 0.992105 0.200411
814 1 0.350994 0.0419793 0.196242
815 1 0.34824 -0.00157203 0.249088
816 1 0.292956 0.0401294 0.248013
817 1 0.413257 0.996205 0.201041
818 1 0.44495 0.0610036 0.196299
819 1 0.454712 0.985064 0.252505
820 1 0.40109 0.0474928 0.247136
821 1 0.488548 0.0133975 0.186854
822 1 0.545944 0.071116 0.200076
823 1 0.546774 0.00568865 0.249605
824 1 0.498989 0.0486788 0.252342
825 1 0.583662 0.00803545 0.192276
826 1 0.640995 0.042336 0.189636
827 1 0.644531 0.998253 0.250247
828 1 0.601334 0.0491884 0.253238
829 1 0.691705 0.0138368 0.208436
830 1 0.743027 0.0556547 0.202321
831 1 0.74829 0.993362 0.247008
832 1 0.699641 0.0601197 0.264087
833 1 0.791174 1.00038 0.196187
834 1 0.837689 0.0478606 0.193852
835 1 0.8492 0.992554 0.240574
836 1 0.786612 0.0485354 0.252492
837 1 0.897094 0.000765392 0.195096
838 1 0.944214 0.0448502 0.195291
839 1 0.948385 0.996208 0.243247
840 1 0.894807 0.0431938 0.245773
841 1 0.996323 0.102311 0.19479
842 1 0.053767 0.143882 0.200236
843 1 0.0520622 0.089861 0.255441
844 1 0.99783 0.130064 0.250848
845 1 0.096177 0.0917148 0.197439
846 1 0.148209 0.137088 0.195561
847 1 0.142737 0.0990892 0.248029
848 1 0.0921123 0.141239 0.2511
849 1 0.195746 0.0928673 0.209363
850 1 0.243521 0.132834 0.203508
851 1 0.247716 0.0933349 0.254771
852 1 0.188648 0.144302 0.249313
853 1 0.2991 0.0908648 0.200832
854 1 0.343012 0.145987 0.200578
855 1 0.342935 0.0915371 0.245334
856 1 0.290321 0.144464 0.251541
857 1 0.396224 0.0984079 0.19868
858 1 0.449883 0.156988 0.196138
859 1 0.443808 0.11233 0.242734
860 1 0.392585 0.152927 0.252509
861 1 0.496699 0.108598 0.191804
862 1 0.547808 0.143307 0.201974
863 1 0.547366 0.10856 0.255297
864 1 0.506344 0.156299 0.250997
865 1 0.602862 0.0941283 0.205767
866 1 0.656921 0.149903 0.195687
867 1 0.650599 0.110141 0.25659
868 1 0.601104 0.154278 0.240969
869 1 0.683633 0.0938264 0.203268
870 1 0.749118 0.134234 0.205043
871 1 0.755799 0.0996193 0.267288
872 1 0.698389 0.148657 0.245338
873 1 0.794757 0.0960356 0.207249
874 1 0.844358 0.13921 0.198881
875 1 0.849269 0.087857 0.242842
876 1 0.80336 0.143732 0.248865
877 1 0.897591 0.0827122 0.195019
878 1 0.94669 0.134321 0.205003
879 1 0.945979 0.0909655 0.250988
880 1 0.901791 0.145597 0.243737
881 1 0.988686 0.184327 0.193401
882 1 0.0329092 0.23225 0.199885
883 1 0.046466 0.190833 0.25007
884 1 0.987525 0.237003 0.247859
885 1 0.104797 0.187088 0.201048
886 1 0.13813 0.244109 0.194539
887 1 0.135453 0.206212 0.259079
888 1 0.0864345 0.246452 0.228706
889 1 0.192032 0.200403 0.195844