ITEM: TIMESTEP
15300
ITEM: NUMBER OF ATOMS
4000
ITEM: BOX BOUNDS pp pp pp
0.0000000000000000e+00 1.6795961913825074e+01
0.0000000000000000e+00 1.6795961913825074e+01
0.0000000000000000e+00 1.6795961913825074e+01
ITEM: ATOMS id type xs ys zs
1 1 0.00191572 0.00461373 0.00475904
2 1 0.0511622 0.0470086 0.0141535
3 1 0.0466515 0.9965 0.0531543
4 1 -0.000963394 0.0460368 0.0580509
5 1 0.0986697 0.993741 0.995739
6 1 0.143377 0.0511937 0.996077
7 1 0.146518 0.999773 0.0464354
8 1 0.100801 0.0470186 0.0489481
9 1 0.19211 0.997454 0.992233
10 1 0.241151 0.0481191 0.990028
11 1 0.242394 0.00218387 0.0390156
12 1 0.196612 0.0441397 0.0415154
13 1 0.288211 0.000999429 0.988778
14 1 0.34537 0.0349116 -0.000722466
15 1 0.354274 0.991631 0.0452377
16 1 0.292814 0.0430708 0.0445207
17 1 0.399064 0.994359 0.989562
18 1 0.449548 0.0625764 0.00599711
19 1 0.447499 0.987186 0.0394385
20 1 0.394585 0.0455294 0.0488295
21 1 0.49707 0.992995 -0.00190106
22 1 0.545595 0.0451663 0.992971
23 1 0.549696 0.997537 0.0494707
24 1 0.499335 0.0532083 0.0426128
25 1 0.593573 0.99716 -0.00236521
26 1 0.642 0.0446238 0.99886
27 1 0.642611 0.998998 0.0449105
28 1 0.595884 0.0416309 0.0475853
29 1 0.699851 0.998375 0.993756
30 1 0.744016 0.0486008 0.997384
31 1 0.743931 0.00592164 0.0488824
32 1 0.69434 0.0534075 0.04401
33 1 0.791799 0.999384 0.985573
34 1 0.846792 0.040684 0.995788
35 1 0.858038 0.00688377 0.0502744
36 1 0.792887 0.0490873 0.0505561
37 1 0.900912 0.00346369 0.997499
38 1 0.956875 0.0448966 0.994526
39 1 0.956446 0.995378 0.0519491
40 1 0.901425 0.0515968 0.0397588
41 1 0.9956 0.0934289 0.00503843
42 1 0.0440897 0.144657 0.998613
43 1 0.0451756 0.105411 0.0527324
44 1 0.00118817 0.152149 0.0460052
45 1 0.093038 0.0980758 0.00362965
46 1 0.144722 0.153933 0.996536
47 1 0.143204 0.103675 0.0429938
48 1 0.0875894 0.151451 0.0475094
49 1 0.195989 0.0929234 0.995156
50 1 0.251457 0.137842 0.997238
51 1 0.247763 0.0869728 0.0502805
52 1 0.197128 0.142003 0.04295
53 1 0.300902 0.0865914 0.997892
54 1 0.339562 0.142803 0.998942
55 1 0.349854 0.0997561 0.0535278
56 1 0.290533 0.140117 0.0510095
57 1 0.401098 0.106055 0.997435
58 1 0.450196 0.146337 0.989428
59 1 0.455684 0.109352 0.0474953
60 1 0.404191 0.147098 0.0614358
61 1 0.499942 0.104875 0.999448
62 1 0.55237 0.150289 0.00111903
63 1 0.543712 0.100175 0.0479026
64 1 0.503378 0.151047 0.0483166
65 1 0.597642 0.0992743 0.998246
66 1 0.648066 0.149728 0.00526073
67 1 0.645602 0.103178 0.0504209
68 1 0.598089 0.151394 0.0559055
69 1 0.697669 0.100156 0.999731
70 1 0.745968 0.156539 0.995538
71 1 0.750662 0.102297 0.0457557
72 1 0.697643 0.149859 0.0512384
73 1 0.800616 0.0933225 0.999157
74 1 0.850158 0.156022 0.988759
75 1 0.85731 0.103071 0.045599
76 1 0.800385 0.152213 0.0364478
77 1 0.898505 0.104852 0.996986
78 1 0.950634 0.149188 0.996653
79 1 0.945085 0.0981142 0.0484568
80 1 0.905375 0.150937 0.0445264
81 1 0.997177 0.201621 0.997013
82 1 0.0512875 0.253409 -0.000827287
83 1 0.0447523 0.197585 0.0482716
84 1 0.995879 0.252457 0.047992
85 1 0.0928653 0.195835 0.995604
86 1 0.140002 0.241569 0.998038
87 1 0.148451 0.188908 0.0496804
88 1 0.0964553 0.244448 0.0480712
89 1 0.190331 0.199957 0.00310517
90 1 0.242938 0.241462 0.0112795
91 1 0.244198 0.189841 0.0547867
92 1 0.194141 0.234969 0.0551639
93 1 0.295235 0.19282 0.00777184
94 1 0.357891 0.239591 0.00373227
95 1 0.349144 0.19657 0.0521223
96 1 0.30175 0.2488 0.0549128
97 1 0.3992 0.190903 0.99816
98 1 0.446011 0.241216 0.997552
99 1 0.45189 0.193288 0.0422581
100 1 0.400977 0.238923 0.0527107
101 1 0.496859 0.193804 0.997001
102 1 0.555317 0.255922 0.00246434
103 1 0.545083 0.19587 0.0526685
104 1 0.497156 0.246863 0.0402306
105 1 0.602322 0.196948 -0.000137954
106 1 0.649819 0.245793 0.999696
107 1 0.650714 0.205726 0.0495127
108 1 0.596358 0.240565 0.0554749
109 1 0.700166 0.203526 0.0081785
110 1 0.753675 0.247168 0.998105
111 1 0.753201 0.200838 0.0471286
112 1 0.696497 0.254952 0.0508507
113 1 0.801144 0.204752 0.990573
114 1 0.853908 0.245199 0.00677837
115 1 0.850864 0.190856 0.041691
116 1 0.801261 0.2549 0.0449308
117 1 0.90602 0.197028 0.991726
118 1 0.950595 0.253853 0.996989
119 1 0.947075 0.202603 0.0444977
120 1 0.897803 0.255375 0.0525482
121 1 0.996154 0.305513 -0.000148209
122 1 0.0432273 0.355344 0.000802317
123 1 0.0450842 0.302705 0.0455296
124 1 0.99786 0.345467 0.0491867
125 1 0.0891482 0.304644 0.00119291
126 1 0.149429 0.348349 0.00375564
127 1 0.142751 0.291191 0.0479188
128 1 0.099151 0.350895 0.0502975
129 1 0.195672 0.29241 0.0143621
130 1 0.249523 0.346165 0.996571
131 1 0.24789 0.298784 0.055835
132 1 0.192961 0.347313 0.0560189
133 1 0.298599 0.299377 0.995029
134 1 0.351702 0.34139 0.00286369
135 1 0.350067 0.289643 0.0473254
136 1 0.301063 0.338725 0.0486296
137 1 0.403279 0.288359 0.00842279
138 1 0.451461 0.341302 0.996776
139 1 0.451875 0.29572 0.0538893
140 1 0.403097 0.349459 0.0429458
141 1 0.500356 0.295707 0.993498
142 1 0.551695 0.339699 0.995573
143 1 0.553696 0.296432 0.0539772
144 1 0.494926 0.344526 0.0562677
145 1 0.605574 0.295267 0.992251
146 1 0.653459 0.342779 0.0026022
147 1 0.64182 0.295407 0.0488547
148 1 0.601274 0.348846 0.0483827
149 1 0.700888 0.300036 0.000590962
150 1 0.750116 0.341542 0.99334
151 1 0.758594 0.302581 0.0501767
152 1 0.695065 0.348508 0.056425
153 1 0.806953 0.299519 0.99578
154 1 0.851523 0.348317 0.00118983
155 1 0.848805 0.297853 0.0457366
156 1 0.805948 0.351749 0.0459682
157 1 0.898137 0.298051 0.994901
158 1 0.943089 0.345883 0.00133928
159 1 0.947077 0.298126 0.0523983
160 1 0.89421 0.355622 0.0547816
161 1 0.997978 0.402196 1.0008
162 1 0.0490687 0.446837 0.00195921
163 1 0.0477342 0.403667 0.0505518
164 1 0.998611 0.451742 0.0476319
165 1 0.0972815 0.39305 0.00108723
166 1 0.143242 0.444455 1.00004
167 1 0.143877 0.396976 0.0470572
168 1 0.0988839 0.450444 0.0466771
169 1 0.195538 0.389199 0.00627192
170 1 0.247337 0.441493 0.998983
171 1 0.241495 0.391601 0.05003
172 1 0.193612 0.440615 0.04707
173 1 0.296191 0.391574 0.00334328
174 1 0.360811 0.445472 0.00321102
175 1 0.35118 0.403191 0.0475144
176 1 0.299344 0.449899 0.0460756
177 1 0.406656 0.394278 0.996356
178 1 0.451378 0.445931 0.00623779
179 1 0.451862 0.389246 0.0491845
180 1 0.404929 0.445898 0.0532972
181 1 0.498492 0.391042 1.00187
182 1 0.553316 0.443969 0.994096
183 1 0.543038 0.394281 0.0463524
184 1 0.50282 0.443179 0.0452203
185 1 0.604496 0.390414 0.995081
186 1 0.646835 0.445827 1.00022
187 1 0.645696 0.397466 0.0437129
188 1 0.58971 0.443666 0.043694
189 1 0.698744 0.392988 0.998067
190 1 0.750312 0.446382 0.00352949
191 1 0.748916 0.392903 0.0473672
192 1 0.704 0.437225 0.0457515
193 1 0.7992 0.396925 0.000167955
194 1 0.848028 0.447375 0.999233
195 1 0.853818 0.405314 0.0595895
196 1 0.798598 0.447168 0.0432661
197 1 0.904036 0.398544 0.00506279
198 1 0.945785 0.450999 0.999603
199 1 0.948295 0.395334 0.0489795
200 1 0.899685 0.454724 0.0573367
201 1 0.00436781 0.499286 0.990994
202 1 0.045045 0.555744 0.995527
203 1 0.0455936 0.49965 0.0472748
204 1 0.999269 0.5482 0.0481157
205 1 0.0984152 0.500323 0.996423
206 1 0.144825 0.546428 0.995386
207 1 0.151688 0.497776 0.0354795
208 1 0.0921047 0.546081 0.0410641
209 1 0.205876 0.499309 0.000189736
210 1 0.251298 0.555678 0.000463925
211 1 0.246595 0.490547 0.0500933
212 1 0.202037 0.542426 0.0489186
213 1 0.295477 0.501797 0.00173405
214 1 0.352243 0.545048 0.997166
215 1 0.346645 0.50373 0.0442428
216 1 0.302443 0.553939 0.0459197
217 1 0.408578 0.492998 0.00108838
218 1 0.455818 0.54437 0.993126
219 1 0.451628 0.497674 0.0506505
220 1 0.409633 0.547414 0.042116
221 1 0.501428 0.481705 0.997555
222 1 0.551426 0.545338 0.000980155
223 1 0.546224 0.492561 0.0410748
224 1 0.50141 0.55415 0.0422812
225 1 0.603837 0.504905 0.0169205
226 1 0.649834 0.552539 0.997963
227 1 0.651889 0.492565 0.0497145
228 1 0.601322 0.552911 0.0583903
229 1 0.692252 0.4955 0.991626
230 1 0.752394 0.538703 0.992221
231 1 0.757455 0.499122 0.0455197
232 1 0.698355 0.544792 0.0453527
233 1 0.799821 0.496233 0.989585
234 1 0.852557 0.544108 0.00196908
235 1 0.847536 0.495206 0.0479024
236 1 0.79784 0.54759 0.045881
237 1 0.900096 0.491497 0.998386
238 1 0.949665 0.553251 0.995248
239 1 0.949942 0.496829 0.0497619
240 1 0.907136 0.554051 0.0455549
241 1 0.999658 0.60395 0.996567
242 1 0.0450207 0.656297 0.000973836
243 1 0.0466717 0.595281 0.0469563
244 1 0.00271128 0.64955 0.0489824
245 1 0.0971862 0.599851 0.993744
246 1 0.145944 0.646227 0.996532
247 1 0.145591 0.589498 0.0452025
248 1 0.100974 0.645644 0.0450253
249 1 0.194556 0.600597 0.999541
250 1 0.247161 0.644225 0.996088
251 1 0.254056 0.593281 0.0498359
252 1 0.190407 0.648725 0.0414086
253 1 0.305114 0.599575 0.997744
254 1 0.344631 0.651071 0.996248
255 1 0.350275 0.597918 0.04754
256 1 0.300897 0.642835 0.0467626
257 1 0.399613 0.605104 0.00231286
258 1 0.446541 0.650262 0.998739
259 1 0.447184 0.600968 0.0470802
260 1 0.403517 0.647417 0.0507112
261 1 0.492083 0.600102 0.994713
262 1 0.545528 0.654514 0.999899
263 1 0.544123 0.599845 0.0414371
264 1 0.496211 0.644518 0.0493178
265 1 0.602483 0.593551 0.00308905
266 1 0.648054 0.654505 0.00494075
267 1 0.658858 0.598262 0.04462
268 1 0.59388 0.650072 0.0413596
269 1 0.70129 0.601511 0.990524
270 1 0.744255 0.650567 0.000685527
271 1 0.749019 0.592296 0.0407296
272 1 0.69611 0.652187 0.0485121
273 1 0.804253 0.593863 0.000312486
274 1 0.846807 0.64228 0.00306602
275 1 0.85457 0.596434 0.0488586
276 1 0.800777 0.644627 0.0541201
277 1 0.896199 0.597938 0.992162
278 1 0.950222 0.651222 0.994434
279 1 0.955345 0.603566 0.0465259
280 1 0.902071 0.646012 0.044064
281 1 0.993361 0.69666 0.997511
282 1 0.0509553 0.749043 0.997918
283 1 0.0513477 0.705299 0.0416819
284 1 0.99581 0.748993 0.0475988
285 1 0.100744 0.702112 0.999631
286 1 0.15301 0.745262 0.000117796
287 1 0.150898 0.699993 0.0495279
288 1 0.0986222 0.748731 0.0465552
289 1 0.196965 0.693363 0.997946
290 1 0.246116 0.752417 0.997782
291 1 0.253544 0.694964 0.0431551
292 1 0.197244 0.753244 0.0518131
293 1 0.298487 0.698081 0.000431398
294 1 0.340947 0.758309 0.990089
295 1 0.351745 0.699863 0.0393023
296 1 0.297023 0.741458 0.0483324
297 1 0.406084 0.697854 0.991889
298 1 0.446009 0.749601 0.997414
299 1 0.446794 0.699688 0.0499105
300 1 0.39547 0.747432 0.0402267
301 1 0.496275 0.698492 0.00489797
302 1 0.545091 0.744585 0.998604
303 1 0.544797 0.696848 0.0533702
304 1 0.490627 0.749695 0.051225
305 1 0.590895 0.701287 0.994771
306 1 0.643055 0.753353 0.989771
307 1 0.649963 0.712665 0.0485937
308 1 0.595938 0.743722 0.0431362
309 1 0.698289 0.69901 0.00166971
310 1 0.750096 0.740105 0.0023428
311 1 0.754101 0.700794 0.0556279
312 1 0.704622 0.747767 0.0512525
313 1 0.800874 0.699523 1.00089
314 1 0.845732 0.754487 0.993947
315 1 0.845364 0.690188 0.0510526
316 1 0.803638 0.755424 0.0516991
317 1 0.896699 0.695073 0.99871
318 1 0.949635 0.748174 0.997774
319 1 0.942802 0.702127 0.046421
320 1 0.898359 0.755327 0.04445
321 1 0.00103913 0.792123 0.00100028
322 1 0.0426062 0.844192 0.997442
323 1 0.0551376 0.802839 0.0412135
324 1 0.998753 0.847981 0.0459022
325 1 0.101314 0.799155 0.000944041
326 1 0.148178 0.845678 0.987725
327 1 0.156434 0.805443 0.0457046
328 1 0.107469 0.849 0.0460806
329 1 0.199605 0.803141 0.000663018
330 1 0.242648 0.852947 0.989384
331 1 0.243578 0.799925 0.0484047
332 1 0.197597 0.854987 0.0472727
333 1 0.292722 0.801758 0.988722
334 1 0.342598 0.841535 0.998204
335 1 0.348136 0.795488 0.0474222
336 1 0.296132 0.847859 0.0448616
337 1 0.395643 0.791455 0.992459
338 1 0.44763 0.84747 0.995097
339 1 0.445224 0.794689 0.0441401
340 1 0.396884 0.838272 0.0447297
341 1 0.49272 0.789268 0.996559
342 1 0.534145 0.852217 0.00455084
343 1 0.539982 0.800555 0.0470078
344 1 0.488966 0.842635 0.0445751
345 1 0.589965 0.798748 0.992712
346 1 0.634937 0.843467 0.00117227
347 1 0.643443 0.795088 0.0500936
348 1 0.590651 0.846202 0.0437339
349 1 0.691868 0.800511 0.00179377
350 1 0.745733 0.844417 0.00200223
351 1 0.740134 0.806498 0.0493887
352 1 0.691686 0.849535 0.0429403
353 1 0.789424 0.796497 0.00239814
354 1 0.842666 0.84731 1.00034
355 1 0.846687 0.802892 0.0479115
356 1 0.796684 0.844666 0.0521618
357 1 0.901962 0.810918 0.997683
358 1 0.951694 0.855547 0.994424
359 1 0.950334 0.799033 0.0403533
360 1 0.898505 0.851275 0.0501101
361 1 0.994695 0.896511 0.996076
362 1 0.0425896 0.9471 0.99383
363 1 0.0427703 0.898067 0.0443861
364 1 0.000693006 0.945717 0.0494074
365 1 0.100362 0.891356 0.998473
366 1 0.147108 0.948219 0.992431
367 1 0.149836 0.895045 0.0450173
368 1 0.0972984 0.949454 0.0461887
369 1 0.198493 0.899213 0.989656
370 1 0.241776 0.952034 0.993442
371 1 0.245025 0.89716 0.052152
372 1 0.194268 0.951373 0.0408154
373 1 0.289541 0.898462 0.99927
374 1 0.340067 0.95213 0.988879
375 1 0.348934 0.891329 0.0418352
376 1 0.290593 0.945811 0.0379697
377 1 0.398268 0.893949 0.0024439
378 1 0.449702 0.942948 0.991941
379 1 0.451463 0.897197 0.0423361
380 1 0.401777 0.938542 0.0531933
381 1 0.494837 0.899678 0.994848
382 1 0.546602 0.947313 0.996105
383 1 0.55365 0.901778 0.0491618
384 1 0.499841 0.942571 0.0454029
385 1 0.603109 0.900696 -0.000638327
386 1 0.650777 0.956703 0.99189
387 1 0.653465 0.902104 0.0462118
388 1 0.601696 0.95056 0.0490125
389 1 0.695427 0.90825 0.991771
390 1 0.748526 0.948754 0.994735
391 1 0.733145 0.897436 0.0377387
392 1 0.698112 0.9517 0.0419657
393 1 0.805513 0.898197 0.997961
394 1 0.853416 0.957136 0.993011
395 1 0.849882 0.89832 0.0471249
396 1 0.800592 0.967391 0.0439819
397 1 0.88964 0.899687 0.99536
398 1 0.943901 0.943222 1.00057
399 1 0.951537 0.898509 0.0475328
400 1 0.901224 0.953637 0.0508762
401 1 0.00245009 0.99259 0.0993922
402 1 0.0527778 0.050744 0.0918543
403 1 0.0523734 0.993683 0.145478
404 1 0.996987 0.0445968 0.136703
405 1 0.103159 0.995782 0.0954332
406 1 0.149056 0.0412637 0.096988
407 1 0.146685 0.998053 0.149881
408 1 0.100657 0.0468787 0.142647
409 1 0.195969 0.987932 0.0983249
410 1 0.242611 0.0345974 0.0959588
411 1 0.247339 0.988777 0.145736
412 1 0.197389 0.0448281 0.142056
413 1 0.29877 0.991249 0.0958448
414 1 0.342373 0.0367947 0.088054
415 1 0.345133 0.990769 0.14506
416 1 0.29277 0.0389936 0.144446
417 1 0.404024 0.998796 0.0932871
418 1 0.456972 0.0477448 0.0929904
419 1 0.450255 0.992818 0.143306
420 1 0.403108 0.0417955 0.144183
421 1 0.494033 0.989426 0.101251
422 1 0.54924 0.0476194 0.0970645
423 1 0.546366 0.999624 0.142005
424 1 0.493226 0.0452061 0.152361
425 1 0.598943 0.995529 0.0998548
426 1 0.650526 0.0406848 0.0930805
427 1 0.649255 0.995951 0.149338
428 1 0.601951 0.0494243 0.145355
429 1 0.699034 0.994746 0.0934423
430 1 0.743815 0.0566342 0.0988076
431 1 0.748652 1.00103 0.13991
432 1 0.700641 0.0464932 0.154155
433 1 0.796921 0.0111502 0.0990362
434 1 0.849766 0.0610716 0.0950108
435 1 0.847596 0.00940958 0.140904
436 1 0.797563 0.0591798 0.153829
437 1 0.901766 0.00779992 0.0983872
438 1 0.946356 0.0550997 0.0965446
439 1 0.94427 0.000947164 0.145265
440 1 0.902839 0.0585578 0.147477
441 1 0.996104 0.10218 0.104158
442 1 0.0456912 0.150926 0.0995487
443 1 0.0460879 0.101492 0.151532
444 1 0.995041 0.155805 0.141095
445 1 0.0976599 0.0987185 0.0972572
446 1 0.141815 0.144701 0.0957007
447 1 0.155743 0.092461 0.147332
448 1 0.101872 0.142859 0.157612
449 1 0.194194 0.0946275 0.0933243
450 1 0.248995 0.143798 0.101679
451 1 0.250651 0.0983731 0.154121
452 1 0.201023 0.145639 0.145838
453 1 0.293581 0.0940882 0.103006
454 1 0.345105 0.149105 0.0996993
455 1 0.344752 0.0873306 0.142718
456 1 0.298463 0.148846 0.150959
457 1 0.401061 0.099484 0.102264
458 1 0.453896 0.143219 0.104206
459 1 0.447744 0.0987104 0.148546
460 1 0.39865 0.149543 0.152342
461 1 0.496156 0.0974788 0.101478
462 1 0.551188 0.152119 0.101981
463 1 0.551382 0.0946212 0.146329
464 1 0.502649 0.142104 0.153278
465 1 0.599309 0.0920916 0.0999961
466 1 0.654476 0.151523 0.0968369
467 1 0.647015 0.0997769 0.149516
468 1 0.595862 0.14915 0.153454
469 1 0.697948 0.0982059 0.0883814
470 1 0.749663 0.149768 0.0887702
471 1 0.742143 0.100463 0.145168
472 1 0.710313 0.157969 0.147297
473 1 0.790423 0.103368 0.0979802
474 1 0.839012 0.151822 0.0952291
475 1 0.851134 0.0991427 0.148244
476 1 0.79299 0.145669 0.146512
477 1 0.895949 0.112402 0.0953069
478 1 0.950199 0.157744 0.0910405
479 1 0.949368 0.106522 0.150965
480 1 0.897537 0.154482 0.144712
481 1 0.998072 0.204955 0.0915626
482 1 0.0430891 0.253379 0.101382
483 1 0.0433936 0.206829 0.145076
484 1 0.994973 0.24906 0.149139
485 1 0.0999681 0.211002 0.0992503
486 1 0.155987 0.246574 0.101585
487 1 0.147272 0.200819 0.150808
488 1 0.102449 0.249784 0.153671
489 1 0.198342 0.189013 0.0981945
490 1 0.247261 0.240548 0.0986418
491 1 0.243916 0.197171 0.147122
492 1 0.199125 0.242366 0.150328
493 1 0.299431 0.192179 0.107741
494 1 0.346886 0.246906 0.106312
495 1 0.354554 0.195978 0.152224
496 1 0.289068 0.249967 0.153002
497 1 0.409774 0.197438 0.103578
498 1 0.459853 0.2432 0.0931379
499 1 0.449163 0.195548 0.151041
500 1 0.398448 0.244354 0.151908
501 1 0.496973 0.186653 0.0984035
502 1 0.536173 0.237792 0.0979762
503 1 0.549082 0.193527 0.155609
504 1 0.497146 0.245633 0.150415
505 1 0.594812 0.201027 0.10739
506 1 0.650731 0.245576 0.104982
507 1 0.657529 0.19913 0.155879
508 1 0.596734 0.245205 0.150223
509 1 0.700212 0.20143 0.0947443
510 1 0.748108 0.25341 0.0970254
511 1 0.751308 0.21 0.152749
512 1 0.701196 0.255157 0.150637
513 1 0.790544 0.202475 0.10322
514 1 0.846024 0.24805 0.0934979
515 1 0.844668 0.196422 0.146751
516 1 0.795456 0.253455 0.140617
517 1 0.897886 0.20073 0.0972337
518 1 0.949855 0.250615 0.102733
519 1 0.947038 0.199871 0.147133
520 1 0.893482 0.240527 0.146908
521 1 0.99569 0.299255 0.102755
522 1 0.0429222 0.348667 0.0967589
523 1 0.0501472 0.298973 0.146639
524 1 0.998151 0.353813 0.140391
525 1 0.0904357 0.299094 0.0988751
526 1 0.140428 0.345928 0.101717
527 1 0.154254 0.291359 0.148559
528 1 0.0971867 0.349404 0.14926
529 1 0.191752 0.292398 0.0916849
530 1 0.247102 0.347248 0.0984341
531 1 0.23062 0.291874 0.141557
532 1 0.192918 0.342754 0.138253
533 1 0.303507 0.296671 0.102192
534 1 0.352397 0.348948 0.0874061
535 1 0.348834 0.289678 0.153303
536 1 0.301644 0.341603 0.158024
537 1 0.397731 0.288669 0.102963
538 1 0.449567 0.347516 0.103919
539 1 0.447588 0.294133 0.142685
540 1 0.398489 0.343079 0.143075
541 1 0.503677 0.296403 0.0947979
542 1 0.550593 0.349703 0.0919414
543 1 0.54449 0.301689 0.144968
544 1 0.500158 0.353001 0.139471
545 1 0.596923 0.285354 0.09851
546 1 0.639855 0.35614 0.105012
547 1 0.644188 0.309559 0.149758
548 1 0.595048 0.358649 0.154199
549 1 0.693857 0.29976 0.100423
550 1 0.749251 0.346078 0.0992271
551 1 0.757344 0.30267 0.149277
552 1 0.70106 0.351497 0.150048
553 1 0.80143 0.306962 0.0969914
554 1 0.849741 0.349365 0.104585
555 1 0.847315 0.289207 0.140669
556 1 0.80494 0.347846 0.154492
557 1 0.903731 0.302249 0.0972913
558 1 0.945074 0.351818 0.10222
559 1 0.95043 0.301667 0.146195
560 1 0.897262 0.351011 0.150373
561 1 -0.000429286 0.409761 0.100614
562 1 0.0518245 0.451282 0.0986686
563 1 0.0511954 0.399972 0.150507
564 1 0.996013 0.448894 0.146352
565 1 0.097334 0.397923 0.100171
566 1 0.152006 0.448128 0.0994289
567 1 0.149643 0.389906 0.14336
568 1 0.104966 0.447071 0.14689
569 1 0.202105 0.399753 0.102896
570 1 0.253245 0.449444 0.101457
571 1 0.25063 0.397002 0.143667
572 1 0.198056 0.452492 0.145362
573 1 0.303533 0.395756 0.0881919
574 1 0.353056 0.451294 0.0981834
575 1 0.360703 0.393931 0.145766
576 1 0.305175 0.441986 0.147325
577 1 0.406735 0.402012 0.0995078
578 1 0.456784 0.448697 0.0938218
579 1 0.450522 0.40271 0.141752
580 1 0.398728 0.453159 0.142283
581 1 0.49707 0.404311 0.0975081
582 1 0.544861 0.450989 0.0947829
583 1 0.542934 0.403807 0.145095
584 1 0.496116 0.454537 0.148148
585 1 0.595703 0.404001 0.0937475
586 1 0.659833 0.45428 0.104199
587 1 0.642869 0.401589 0.149628
588 1 0.598399 0.452022 0.144463
589 1 0.691196 0.401216 0.102499
590 1 0.740453 0.447725 0.0995093
591 1 0.749626 0.394864 0.145745
592 1 0.701043 0.442223 0.155839
593 1 0.805189 0.393088 0.102414
594 1 0.840924 0.451537 0.103942
595 1 0.845045 0.402937 0.152805
596 1 0.796454 0.444302 0.150563
597 1 0.897855 0.40354 0.110298
598 1 0.948004 0.4469 0.0991157
599 1 0.940682 0.393473 0.158223
600 1 0.891709 0.455466 0.147501
601 1 0.997046 0.495249 0.0973248
602 1 0.0436273 0.543394 0.0949334
603 1 0.0492319 0.493815 0.149836
604 1 0.000802547 0.539695 0.148889
605 1 0.0992401 0.499954 0.097619
606 1 0.147309 0.545627 0.0961442
607 1 0.149468 0.498451 0.149281
608 1 0.0933262 0.543817 0.141125
609 1 0.200716 0.497665 0.0992551
610 1 0.251343 0.540054 0.0887524
611 1 0.252083 0.496897 0.142753
612 1 0.195795 0.549238 0.143167
613 1 0.301663 0.49621 0.0928341
614 1 0.350502 0.542274 0.0987886
615 1 0.345618 0.50013 0.151918
616 1 0.302263 0.54304 0.151269
617 1 0.401195 0.498337 0.0961301
618 1 0.449759 0.552893 0.0985933
619 1 0.44874 0.493443 0.14752
620 1 0.401404 0.549795 0.15118
621 1 0.500972 0.501738 0.0878928
622 1 0.549067 0.545874 0.0965001
623 1 0.549081 0.499388 0.140345
624 1 0.49951 0.541963 0.141671
625 1 0.600543 0.5048 0.105667
626 1 0.65386 0.544849 0.0979232
627 1 0.653337 0.494167 0.150462
628 1 0.587874 0.551641 0.151744
629 1 0.702901 0.504263 0.0929133
630 1 0.750669 0.547746 0.096164
631 1 0.743825 0.504893 0.156147
632 1 0.704487 0.551753 0.148673
633 1 0.797655 0.49595 0.0986481
634 1 0.851094 0.544961 0.0921159
635 1 0.847061 0.502534 0.154422
636 1 0.793281 0.54865 0.147861
637 1 0.898643 0.506696 0.108793
638 1 0.945028 0.546197 0.0976278
639 1 0.953447 0.498372 0.148113
640 1 0.89919 0.55599 0.145156
641 1 0.00178181 0.603415 0.106577
642 1 0.0502578 0.656855 0.0950866
643 1 0.0532479 0.596557 0.146983
644 1 0.00156011 0.65284 0.148409
645 1 0.100233 0.595028 0.0954989
646 1 0.142671 0.666084 0.106378
647 1 0.151474 0.596905 0.144052
648 1 0.0970071 0.655055 0.14918
649 1 0.193658 0.599729 0.0888874
650 1 0.248713 0.64017 0.0898745
651 1 0.242552 0.591085 0.140798
652 1 0.198936 0.642276 0.146727
653 1 0.302322 0.60452 0.0946469
654 1 0.348498 0.64495 0.0953595
655 1 0.344584 0.598843 0.148028
656 1 0.301279 0.648249 0.137671
657 1 0.395281 0.594495 0.102505
658 1 0.457719 0.64307 0.100686
659 1 0.461749 0.596523 0.150562
660 1 0.39848 0.641969 0.143692
661 1 0.501158 0.593197 0.100416
662 1 0.542826 0.646237 0.106937
663 1 0.538405 0.595884 0.156835
664 1 0.498193 0.648773 0.152286
665 1 0.591096 0.596468 0.104951
666 1 0.650116 0.64155 0.095359
667 1 0.642196 0.59502 0.149498
668 1 0.593908 0.64913 0.153353
669 1 0.70052 0.5999 0.0956274
670 1 0.740411 0.650864 0.102138
671 1 0.745761 0.599585 0.141927
672 1 0.691506 0.656891 0.153226
673 1 0.800698 0.589949 0.0979822
674 1 0.847056 0.636445 0.0991502
675 1 0.845579 0.593557 0.147006
676 1 0.794154 0.639741 0.140929
677 1 0.912301 0.605605 0.0960413
678 1 0.955184 0.652315 0.101883
679 1 0.951941 0.596927 0.148123
680 1 0.89964 0.646942 0.145526
681 1 0.000281201 0.697359 0.0913977
682 1 0.047594 0.758459 0.0880108
683 1 0.0460398 0.711561 0.139538
684 1 0.997613 0.751117 0.140985
685 1 0.095065 0.707123 0.10156
686 1 0.143954 0.754494 0.0939056
687 1 0.158555 0.711551 0.142629
688 1 0.101304 0.749281 0.147052
689 1 0.208047 0.690476 0.0935634
690 1 0.254885 0.73846 0.094195
691 1 0.25302 0.698145 0.148944
692 1 0.208788 0.748415 0.155455
693 1 0.298571 0.690368 0.0892444
694 1 0.351063 0.742649 0.0945776
695 1 0.34741 0.695427 0.146455
696 1 0.304961 0.748663 0.147196
697 1 0.411741 0.687749 0.102364
698 1 0.450306 0.742502 0.103869
699 1 0.454744 0.700611 0.152376
700 1 0.396681 0.73965 0.143421
701 1 0.499161 0.700559 0.102582
702 1 0.549437 0.752393 0.0984712
703 1 0.542129 0.698241 0.159462
704 1 0.494913 0.750053 0.15176
705 1 0.604563 0.701113 0.0948886
706 1 0.645118 0.748515 0.105923
707 1 0.641873 0.694677 0.154168
708 1 0.588119 0.751837 0.149425
709 1 0.691763 0.694229 0.0990347
710 1 0.756416 0.745405 0.108755
711 1 0.755876 0.694175 0.154349
712 1 0.692516 0.761183 0.147178
713 1 0.809937 0.693713 0.100211
714 1 0.858727 0.74593 0.0986909
715 1 0.856671 0.696085 0.148997
716 1 0.804189 0.750842 0.141376
717 1 0.891034 0.685376 0.0953456
718 1 0.942117 0.747341 0.0952411
719 1 0.954778 0.702089 0.143137
720 1 0.905838 0.753286 0.149814
721 1 0.986405 0.802774 0.0956596
722 1 0.0498379 0.847633 0.0894044
723 1 0.0510026 0.80395 0.140347
724 1 0.998469 0.850289 0.143958
725 1 0.0985553 0.798544 0.0906403
726 1 0.149542 0.849008 0.102453
727 1 0.155373 0.791998 0.147068
728 1 0.0918968 0.850755 0.148773
729 1 0.20005 0.804111 0.09507
730 1 0.252791 0.842661 0.0969581
731 1 0.255911 0.794864 0.144941
732 1 0.198668 0.85079 0.143133
733 1 0.298035 0.795388 0.094273
734 1 0.343565 0.842978 0.0926047
735 1 0.347883 0.796944 0.153627
736 1 0.301816 0.844555 0.146131
737 1 0.390853 0.796729 0.0945597
738 1 0.444009 0.84426 0.090945
739 1 0.44171 0.801912 0.147004
740 1 0.395013 0.845612 0.143494
741 1 0.495419 0.797187 0.102424
742 1 0.54001 0.853934 0.107104
743 1 0.543938 0.803541 0.153821
744 1 0.491168 0.845031 0.153521
745 1 0.59583 0.806044 0.100184
746 1 0.646316 0.850441 0.0927357
747 1 0.641935 0.805354 0.145279
748 1 0.598578 0.850442 0.151459
749 1 0.69564 0.804931 0.0918121
750 1 0.744369 0.853261 0.0969324
751 1 0.747307 0.803518 0.142767
752 1 0.692827 0.845879 0.146309
753 1 0.795658 0.796878 0.0982089
754 1 0.843855 0.844779 0.0987795
755 1 0.852589 0.796184 0.151999
756 1 0.796635 0.844811 0.146326
757 1 0.89575 0.793139 0.0979939
758 1 0.943216 0.849546 0.0974159
759 1 0.943525 0.805334 0.146612
760 1 0.89076 0.849116 0.143953
761 1 0.00245764 0.898412 0.0989838
762 1 0.0515003 0.94508 0.0989302
763 1 0.0501702 0.89912 0.147621
764 1 0.997851 0.944992 0.143884
765 1 0.0976938 0.894696 0.0892446
766 1 0.144953 0.943557 0.0956386
767 1 0.142129 0.901765 0.143679
768 1 0.0959602 0.943701 0.147272
769 1 0.194555 0.903742 0.0990291
770 1 0.248257 0.941802 0.103856
771 1 0.244688 0.893437 0.144738
772 1 0.192749 0.944761 0.147942
773 1 0.298961 0.897953 0.0974598
774 1 0.351802 0.941077 0.0920483
775 1 0.351611 0.895456 0.147872
776 1 0.298066 0.940666 0.149601
777 1 0.40089 0.890452 0.0948863
778 1 0.450741 0.942407 0.0972377
779 1 0.448175 0.891025 0.144732
780 1 0.398363 0.942074 0.13963
781 1 0.492772 0.896569 0.091931
782 1 0.543482 0.946171 0.0985916
783 1 0.557861 0.901228 0.144314
784 1 0.497378 0.93755 0.145587
785 1 0.600557 0.894774 0.0952304
786 1 0.649047 0.952264 0.09713
787 1 0.652949 0.893505 0.14732
788 1 0.602159 0.947515 0.15025
789 1 0.69678 0.906294 0.0967618
790 1 0.75045 0.941393 0.0939708
791 1 0.74638 0.898534 0.146569
792 1 0.695067 0.948816 0.14485
793 1 0.800673 0.895395 0.099477
794 1 0.845271 0.954847 0.0970318
795 1 0.850802 0.90314 0.144423
796 1 0.799703 0.950534 0.14573
797 1 0.899428 0.900435 0.0951726
798 1 0.944267 0.948771 0.0966303
799 1 0.947538 0.902455 0.136326
800 1 0.895617 0.948559 0.145184
801 1 0.999168 0.997636 0.181834
802 1 0.0561888 0.0364985 0.195128
803 1 0.0534758 0.991355 0.249847
804 1 0.999071 0.0566879 0.234515
805 1 0.103863 0.99494 0.207199
806 1 0.143491 0.0489519 0.195283
807 1 0.15332 0.994824 0.24584
808 1 0.108049 0.0461838 0.250179
809 1 0.198172 0.990166 0.196006
810 1 0.237077 0.038392 0.187821
811 1 0.246796 0.999901 0.244737
812 1 0.198456 0.0369673 0.253503
813 1 0.306116 0.984649 0.198014
814 1 0.348441 0.0406579 0.200334
815 1 0.352296 0.991271 0.249603
816 1 0.300497 0.0399435 0.251482
817 1 0.403588 0.992491 0.191814
818 1 0.441657 0.0478692 0.198631
819 1 0.455683 0.990913 0.246619
820 1 0.402994 0.0383558 0.247331
821 1 0.501559 0.995522 0.192703
822 1 0.555239 0.0431283 0.191666
823 1 0.54827 0.999164 0.242694
824 1 0.50732 0.0447516 0.237473
825 1 0.594349 0.995315 0.197774
826 1 0.649637 0.0504913 0.195848
827 1 0.652866 0.992021 0.244934
828 1 0.596929 0.0505633 0.241526
829 1 0.70076 1.00002 0.1977
830 1 0.74899 0.0481973 0.20349
831 1 0.753872 0.0011949 0.251461
832 1 0.700768 0.0419494 0.245303
833 1 0.796571 0.999741 0.197562
834 1 0.854578 0.0530398 0.191761
835 1 0.853618 0.996663 0.24878
836 1 0.806432 0.047303 0.246247
837 1 0.898812 0.000766005 0.195005
838 1 0.958355 0.0512905 0.183075
839 1 0.957235 0.997936 0.240628
840 1 0.892708 0.0499548 0.243334
841 1 0.997901 0.111171 0.195489
842 1 0.045453 0.15235 0.200974
843 1 0.0497425 0.101696 0.242802
844 1 0.995592 0.147879 0.248487
845 1 0.098101 0.0905809 0.198858
846 1 0.152466 0.133295 0.20438
847 1 0.157175 0.0910618 0.246933
848 1 0.10121 0.145934 0.250869
849 1 0.207097 0.0952709 0.195717
850 1 0.253212 0.141777 0.199009
851 1 0.259288 0.087759 0.237525
852 1 0.211416 0.130754 0.251787
853 1 0.301508 0.085318 0.191001
854 1 0.341574 0.145102 0.199206
855 1 0.34519 0.0927943 0.247946
856 1 0.298803 0.140621 0.248272
857 1 0.389277 0.0956926 0.192426
858 1 0.448811 0.144018 0.195506
859 1 0.450015 0.0942234 0.243648
860 1 0.400932 0.148349 0.245485
861 1 0.500915 0.0969132 0.198711
862 1 0.551007 0.147284 0.198719
863 1 0.555447 0.0981963 0.245421
864 1 0.504788 0.14947 0.250718
865 1 0.597588 0.095239 0.19679
866 1 0.658106 0.141389 0.192677
867 1 0.647929 0.0935041 0.25024
868 1 0.598319 0.15153 0.249169
869 1 0.701023 0.0958715 0.203065
870 1 0.748219 0.146383 0.200126
871 1 0.750147 0.101687 0.256094
872 1 0.697976 0.149343 0.248378
873 1 0.795147 0.101562 0.202833
874 1 0.844557 0.147509 0.198851
875 1 0.848293 0.0911871 0.248399
876 1 0.796783 0.152479 0.249722
877 1 0.900044 0.105375 0.193995
878 1 0.948918 0.153132 0.198248
879 1 0.941298 0.09838 0.23949
880 1 0.892481 0.148747 0.246033
881 1 0.999585 0.198581 0.193808
882 1 0.0519961 0.260361 0.199097
883 1 0.0455159 0.199057 0.243697
884 1 0.99341 0.246136 0.247219
885 1 0.0945891 0.20347 0.202206
886 1 0.145388 0.247753 0.20402
887 1 0.147076 0.195162 0.2437
888 1 0.0989251 0.246931 0.246717
889 1 0.200028 0.187618 0.198299
890 1 0.243038 0.249313 0.199184
891 1 0.249404 0.195061 0.241624