ITEM: TIMESTEP
54300
ITEM: NUMBER OF ATOMS
4000
ITEM: BOX BOUNDS pp pp pp
0.0000000000000000e+00 1.6795961913825074e+01
0.0000000000000000e+00 1.6795961913825074e+01
0.0000000000000000e+00 1.6795961913825074e+01
ITEM: ATOMS id type xs ys zs
1 1 0.10129 0.357807 0.00957977
2 1 0.988304 0.991882 0.897449
3 1 0.960547 0.728165 0.100169
4 1 0.686246 0.044533 0.232851
5 1 0.147627 0.0329902 0.760482
6 1 0.549071 0.740399 0.767107
7 1 0.0385223 0.518736 0.675673
8 1 0.202865 0.154306 0.299939
9 1 0.535817 0.108829 0.145467
10 1 0.38064 0.235431 0.682413
11 1 0.122839 0.00503308 0.172848
12 1 0.329026 0.668759 0.800355
13 1 0.343669 0.950522 0.0493213
14 1 0.449586 0.819134 0.879859
15 1 0.587609 0.215932 0.108646
16 1 0.266658 0.753771 0.972066
17 1 0.719049 0.229637 0.865086
18 1 0.440573 0.893132 0.614536
19 1 0.639331 0.0224707 0.426353
20 1 0.645654 0.191999 0.934491
21 1 0.516396 0.884425 0.253907
22 1 0.694446 0.178099 0.964402
23 1 0.755489 0.242591 0.817729
24 1 0.720616 0.0555687 0.00692496
25 1 0.824637 0.83805 0.0297684
26 1 0.630673 0.279378 0.172979
27 1 0.90308 0.0674159 0.170163
28 1 0.367381 0.862209 0.803492
29 1 0.135591 0.810963 0.115666
30 1 0.840474 0.866262 0.830147
31 1 0.169177 0.0256242 0.0933462
32 1 0.283929 0.0664114 0.0390202
33 1 0.948379 0.979692 0.107516
34 1 0.713875 0.12948 0.0959141
35 1 0.133721 0.744312 0.364398
36 1 0.974953 0.237262 0.954886
37 1 0.536198 0.61028 0.977873
38 1 0.505072 0.849719 0.950862
39 1 0.0184814 0.0912773 0.719488
40 1 0.924271 0.892692 0.152232
41 1 0.860859 0.0822641 0.746667
42 1 0.0250675 0.984865 0.496582
43 1 0.821996 0.29354 0.389756
44 1 0.213813 0.675834 0.295669
45 1 0.956226 0.909417 0.0301569
46 1 0.629013 0.377011 0.985693
47 1 0.463554 0.680942 0.353919
48 1 0.00757979 0.533897 0.169218
49 1 0.206586 0.354036 0.746145
50 1 0.352282 0.781948 0.19024
51 1 0.449392 0.916857 0.240288
52 1 0.133742 0.276165 0.903484
53 1 0.2758 0.221355 0.951039
54 1 0.240976 0.689786 0.874002
55 1 0.631224 0.364091 0.345903
56 1 0.385758 0.192172 0.0607578
57 1 0.329947 0.421213 0.249083
58 1 0.657204 0.199192 0.0999672
59 1 0.14793 0.318019 0.119244
60 1 0.340938 0.536327 0.158256
61 1 0.509309 0.498549 0.994671
62 1 0.337449 0.327791 0.789916
63 1 0.325096 0.164006 0.961828
64 1 0.469881 0.172975 0.628995
65 1 0.492241 0.198126 0.00721087
66 1 0.59051 0.661462 0.20411
67 1 0.244193 0.525661 0.206389
68 1 0.861847 0.584228 0.0738233
69 1 0.356995 0.124394 0.917944
70 1 0.814832 0.0800506 0.620384
71 1 0.742011 0.083003 0.123639
72 1 0.416458 0.0638413 0.833528
73 1 0.941213 0.126391 0.0665047
74 1 0.0344583 0.799687 0.169994
75 1 0.715556 0.743026 0.994232
76 1 0.771413 0.895642 0.129029
77 1 0.659722 0.084727 0.00652281
78 1 0.933746 0.833223 0.377711
79 1 0.665119 0.902726 0.0507426
80 1 0.537326 0.382709 0.963129
81 1 0.991989 0.0716555 0.836757
82 1 0.943241 0.882131 0.98129
83 1 0.921699 0.891157 0.373687
84 1 0.399573 0.431096 0.213944
85 1 0.895923 0.888553 0.560408
86 1 0.970617 0.337089 0.81862
87 1 0.674742 0.281112 0.72841
88 1 0.121121 0.00586284 0.849979
89 1 0.501165 0.821917 0.154408
90 1 0.0231703 0.01612 0.940066
91 1 0.99379 0.268364 0.703523
92 1 0.125361 0.632808 0.230281
93 1 0.343565 0.0775376 0.80699
94 1 0.103996 0.981184 0.794855
95 1 0.478728 0.561248 0.850911
96 1 0.473939 0.358885 0.163409
97 1 0.295532 0.176134 0.0143381
98 1 0.663372 0.747737 0.289305
99 1 0.271604 0.955695 0.382578
100 1 0.738219 0.309652 0.709853
101 1 0.694097 0.209421 0.503231
102 1 0.318135 0.929897 0.747796
103 1 0.971227 0.38858 0.0257502
104 1 0.754349 0.147503 0.250226
105 1 0.193744 0.0878942 0.979433
106 1 0.888864 0.138977 0.747431
107 1 0.615986 0.698887 0.435748
108 1 0.948068 0.17344 0.0317188
109 1 0.276819 0.705877 0.430004
110 1 0.524905 0.247772 0.997755
111 1 0.624821 0.657963 0.854703
112 1 0.395424 0.316899 0.015652
113 1 0.0802441 0.105171 0.981638
114 1 0.741051 0.580229 0.407765
115 1 0.624768 0.156699 0.273266
116 1 0.399556 0.738286 0.510365
117 1 0.153582 0.105006 0.306099
118 1 0.523749 0.0941162 0.325966
119 1 0.919732 0.154615 0.324278
120 1 0.688837 0.275905 0.90046
121 1 0.229698 0.414124 0.884539
122 1 0.181488 0.120631 0.843967
123 1 0.142576 0.399221 0.121238
124 1 0.226974 0.623022 0.819804
125 1 0.252488 0.420284 0.0409287
126 1 0.516819 0.520178 0.315875
127 1 0.721333 0.92941 0.57491
128 1 0.15704 0.480228 0.855388
129 1 0.66092 0.15452 0.557188
130 1 0.740902 0.411856 0.0608859
131 1 0.876764 0.390594 0.722692
132 1 0.346448 0.468029 0.0283004
133 1 0.0191121 0.0118471 0.684475
134 1 -0.00119419 0.613403 0.639776
135 1 0.255466 0.44859 0.138846
136 1 0.295603 -1.625e-05 0.803314
137 1 0.584154 0.216644 0.992568
138 1 0.180111 0.145442 0.951062
139 1 0.668929 0.376121 0.226704
140 1 0.0591508 0.27774 0.336533
141 1 0.0996124 0.136566 0.596778
142 1 0.480728 0.345613 0.0774707
143 1 0.3633 0.305039 0.0914298
144 1 0.776638 0.869365 0.312212
145 1 0.979785 0.372473 0.752521
146 1 0.729997 0.580334 0.194942
147 1 0.302095 0.465282 0.0838594
148 1 0.472891 0.409856 0.896386
149 1 0.115786 0.146099 0.113277
150 1 0.780676 0.28856 0.259445
151 1 0.061267 0.207442 0.269942
152 1 0.972826 0.643061 0.914754
153 1 0.0450038 0.769378 0.308594
154 1 0.537671 0.257648 0.758655
155 1 0.853928 0.458505 0.530763
156 1 0.0153851 0.104547 0.91602
157 1 0.907349 0.364449 0.0802925
158 1 0.0596175 0.310415 0.496796
159 1 0.563344 0.210996 0.844753
160 1 0.616959 0.643754 0.324924
161 1 0.0606717 0.214815 0.123068
162 1 0.771056 0.212849 0.183753
163 1 0.0549305 0.440868 0.296322
164 1 0.0634638 0.556273 0.794772
165 1 0.962583 0.532528 0.801366
166 1 0.495438 0.751192 0.873548
167 1 0.145943 0.202321 0.378963
168 1 0.923998 0.677827 0.546153
169 1 0.298987 0.706394 0.85306
170 1 0.202528 0.695769 0.395012
171 1 0.250609 0.636799 0.266364
172 1 0.298719 0.207349 0.251286
173 1 0.191562 0.367856 0.115742
174 1 0.907457 0.567497 0.132486
175 1 0.269656 0.354203 0.514138
176 1 0.158261 0.0966979 0.793316
177 1 0.317871 0.483233 0.981542
178 1 0.547083 0.518478 0.185098
179 1 0.47213 0.381468 0.75934
180 1 0.945824 0.222825 0.0699835
181 1 0.299649 0.527005 0.204175
182 1 0.852072 0.203743 0.799717
183 1 0.397361 0.520306 0.286985
184 1 0.400167 0.598449 0.816324
185 1 0.62977 0.735079 0.697341
186 1 0.0598736 0.277455 0.138564
187 1 0.271111 0.609431 0.490766
188 1 0.338832 0.305377 0.880738
189 1 0.761057 0.255304 0.895066
190 1 0.0325396 0.147977 0.954415
191 1 0.693174 0.306466 0.198244
192 1 0.864056 0.470943 0.131937
193 1 0.434637 0.0468572 0.199324
194 1 0.785086 0.442014 0.0408011
195 1 0.940818 0.584198 0.540635
196 1 0.815008 0.275462 0.93422
197 1 0.777072 0.298731 0.169837
198 1 0.441025 0.50107 0.0626565
199 1 0.116303 0.332049 0.491749
200 1 0.847532 0.763201 0.554555
201 1 0.00770367 0.320666 0.946053
202 1 0.236169 0.609677 0.877938
203 1 0.113775 0.550003 0.97627
204 1 0.13003 0.532327 0.0361156
205 1 0.310809 0.881256 0.535616
206 1 0.406606 0.562963 0.0354349
207 1 0.868145 0.704472 0.920536
208 1 0.176782 0.759805 0.846539
209 1 0.0986543 0.238703 0.320806
210 1 0.291407 0.796966 0.190454
211 1 0.164501 0.308008 0.99735
212 1 0.151928 0.101055 0.02206
213 1 0.890371 0.0485548 0.875535
214 1 0.595788 0.431321 0.984297
215 1 0.300256 0.380662 0.760334
216 1 0.204023 0.56026 0.0507032
217 1 0.287641 0.471656 0.200924
218 1 0.527656 0.697308 0.242941
219 1 0.492482 0.865836 0.195682
220 1 0.237459 0.782006 0.304337
221 1 0.548084 0.464498 0.115531
222 1 0.423493 0.51829 0.12478
223 1 0.646895 0.558851 0.305595
224 1 0.529882 0.539947 0.678385
225 1 0.545983 0.727018 0.0265846
226 1 0.521444 0.152571 0.933296
227 1 0.236543 0.903105 0.0556985
228 1 0.222448 0.502951 0.149191
229 1 0.310698 0.517624 0.87669
230 1 0.184788 0.548434 0.119153
231 1 0.893357 0.613857 0.93078
232 1 0.213399 0.415008 0.253382
233 1 0.802257 0.736906 0.132724
234 1 0.938188 0.470897 0.170805
235 1 0.180606 0.422741 0.169489
236 1 0.745854 0.446689 0.850303
237 1 0.904825 0.207715 0.35715
238 1 0.489584 0.943565 0.703077
239 1 0.836532 0.314992 0.798028
240 1 0.618648 0.231552 0.231621
241 1 0.744986 0.988269 0.223555
242 1 0.188753 0.925595 0.80278
243 1 0.36522 0.903953 0.685355
244 1 0.247933 0.818232 0.904814
245 1 0.882938 0.90516 0.976881
246 1 0.951965 0.743215 0.998644
247 1 0.108344 0.769027 0.673706
248 1 0.739491 0.88966 0.0311511
249 1 0.321806 0.988165 0.186527
250 1 0.0893375 0.517818 0.842299
251 1 0.323866 0.611882 0.0826483
252 1 0.0343433 0.95635 0.874468
253 1 0.214927 0.796897 0.428929
254 1 0.308498 0.396097 0.903672
255 1 0.387235 0.332499 0.281676
256 1 0.467042 0.659812 0.209848
257 1 0.538275 0.442389 0.0152932
258 1 0.120608 0.657462 0.793534
259 1 0.311841 0.735985 0.00863337
260 1 0.289591 0.529337 0.573643
261 1 0.597289 0.998217 0.896042
262 1 0.657335 0.50584 0.180008
263 1 0.0289868 0.590117 0.340822
264 1 0.397514 0.575499 0.260715
265 1 0.644583 0.45117 0.846859
266 1 0.226087 0.715285 0.93467
267 1 0.477959 0.552094 0.139783
268 1 0.976437 0.119699 0.145026
269 1 0.290717 0.794443 0.0239373
270 1 0.077959 0.162665 0.156396
271 1 0.964699 0.246801 0.267645
272 1 0.0805296 0.456714 0.815125
273 1 0.992018 0.586673 0.798478
274 1 0.576216 0.929695 0.838572
275 1 0.996031 0.477812 0.875352
276 1 0.672249 0.239156 0.208509
277 1 0.793376 0.632032 0.898401
278 1 0.780256 0.566592 0.782773
279 1 0.503244 0.627456 0.604277
280 1 0.284809 0.928294 0.88107
281 1 0.00264591 0.697998 0.179834
282 1 0.312218 0.194683 0.757873
283 1 0.737419 0.708136 0.180406
284 1 0.911575 0.00214229 0.41752
285 1 0.965074 0.7025 0.492107
286 1 0.121579 0.347169 0.307078
287 1 0.384103 0.123931 0.113334
288 1 0.933406 0.474637 0.579961
289 1 0.626932 0.874068 0.265816
290 1 0.614025 0.0648628 0.495818
291 1 0.259094 0.969696 0.834135
292 1 0.381286 0.919246 0.317138
293 1 0.314717 0.565827 0.335662
294 1 0.680296 0.926185 0.200797
295 1 0.553034 0.617402 0.367383
296 1 0.446163 0.967808 0.182528
297 1 0.836724 0.467148 0.0676232
298 1 0.384749 0.685711 0.0749503
299 1 0.316621 0.812253 0.240575
300 1 0.947546 0.425037 0.73904
301 1 0.388218 0.561178 0.630663
302 1 0.728081 0.561236 0.0632967
303 1 0.894783 0.814968 0.0135167
304 1 0.743279 0.968621 0.624538
305 1 0.238835 0.346993 0.896653
306 1 0.472371 0.695402 0.614617
307 1 0.896755 0.385019 0.935214
308 1 0.462097 0.876774 0.0167338
309 1 0.987312 0.681763 0.850709
310 1 0.963425 0.12014 0.949427
311 1 0.148147 0.780754 0.557001
312 1 0.575519 0.543016 0.986462
313 1 0.932686 0.583345 0.878411
314 1 0.877544 0.953514 0.924602
315 1 0.61127 0.998465 0.478516
316 1 0.683259 0.586089 0.513944
317 1 0.701415 0.902482 0.814204
318 1 0.60862 0.916781 0.884096
319 1 0.0597152 0.471965 0.0518891
320 1 0.466805 0.807276 0.986474
321 1 0.0801963 0.792432 0.390813
322 1 0.606033 0.763003 0.129738
323 1 0.294137 0.503549 0.436327
324 1 0.872825 0.759767 0.243089
325 1 0.065637 0.593837 0.154258
326 1 0.00238734 0.00736373 0.58761
327 1 0.993141 0.745926 0.85739
328 1 0.237 0.735008 0.11086
329 1 0.795935 0.54118 0.909208
330 1 0.0610858 0.312055 0.0299323
331 1 0.377088 0.971084 0.931437
332 1 0.494809 0.144306 0.0658234
333 1 0.103166 0.0740582 0.6215
334 1 0.728495 0.781264 0.644799
335 1 0.459226 0.0187213 0.141044
336 1 0.142039 0.727075 0.0731909
337 1 0.593147 0.789502 0.0219105
338 1 0.0198992 0.983579 0.0377724
339 1 0.488759 0.563901 0.559052
340 1 0.99796 0.871366 0.295554
341 1 0.541386 0.684366 0.330183
342 1 0.559392 0.933382 0.0843351
343 1 0.702929 0.865761 0.983586
344 1 0.786892 0.146522 0.724385
345 1 0.790496 0.376142 0.0726213
346 1 0.537435 0.333156 0.0781194
347 1 0.597676 0.181483 0.0373006
348 1 0.601768 0.907021 0.370488
349 1 0.252716 0.603001 0.331597
350 1 0.547247 0.564817 0.91921
351 1 0.63103 0.624396 0.105659
352 1 0.914083 0.137115 0.443963
353 1 0.145091 0.818308 0.854681
354 1 0.706065 0.708401 0.951447
355 1 0.672021 0.646539 0.973006
356 1 0.680676 0.320632 0.363795
357 1 0.440059 0.15269 0.111032
358 1 0.921968 0.0425032 0.723329
359 1 0.165991 0.646624 0.183786
360 1 0.870026 0.208769 0.0368914
361 1 0.389299 0.639208 0.260979
362 1 0.24191 0.420209 0.603777
363 1 0.00592363 0.980207 0.105816
364 1 0.622209 0.0736602 0.0507088
365 1 0.0497543 0.857057 0.159535
366 1 0.187277 0.911216 0.666113
367 1 0.198877 0.0991115 0.119804
368 1 0.134176 0.317766 0.432771
369 1 0.290032 0.121396 0.938896
370 1 0.0606515 0.413391 0.625275
371 1 0.222951 0.0111035 0.0181147
372 1 0.0141913 0.509348 0.819634
373 1 0.848431 0.451478 0.726178
374 1 0.761453 0.852267 0.530769
375 1 0.319663 0.52187 0.0771084
376 1 0.811833 0.1514 0.296201
377 1 0.557992 0.678124 0.77108
378 1 0.399101 0.929684 0.988463
379 1 0.475754 0.300922 0.468801
380 1 0.229787 0.817573 0.177856
381 1 0.680464 0.758552 0.159251
382 1 0.524954 0.0607361 0.402641
383 1 0.0267689 0.0277115 0.380326
384 1 0.434227 0.94075 0.682533
385 1 0.818025 0.947941 0.0569575
386 1 0.495107 0.347539 0.90322
387 1 0.45067 0.941817 0.780927
388 1 0.327894 0.0666509 0.296864
389 1 0.833405 0.0500979 0.845706
390 1 0.559269 0.258163 0.0816117
391 1 0.411463 0.91429 0.811483
392 1 0.349337 0.075959 0.673574
393 1 0.0986996 0.854561 0.0422446
394 1 0.887418 0.472718 0.650531
395 1 0.408451 0.441895 0.40385
396 1 0.935781 0.334296 0.922926
397 1 0.302925 0.571193 0.850094
398 1 0.263416 0.77071 0.460385
399 1 0.373515 0.0732637 0.251968
400 1 0.715887 0.129573 0.0284473
401 1 0.975712 0.881973 0.775166
402 1 0.313858 0.104739 0.611051
403 1 0.425882 0.571648 0.0923736
404 1 0.770171 0.101307 0.208616
405 1 0.414829 0.0204916 0.407435
406 1 0.594445 0.150435 0.117693
407 1 0.268898 0.954674 0.221745
408 1 0.454888 0.037613 0.305911
409 1 0.949954 0.137328 0.253259
410 1 0.0829677 0.44803 0.118459
411 1 0.0761023 0.13984 0.267647
412 1 0.342096 0.13022 0.280698
413 1 0.332521 0.872377 0.861628
414 1 0.29791 0.0126396 0.872843
415 1 0.610545 0.432288 0.119511
416 1 0.496239 0.0585498 0.175749
417 1 0.716706 0.329083 0.147003
418 1 0.459367 0.624358 0.265469
419 1 0.416741 0.0836187 0.366153
420 1 0.234644 0.28205 0.835562
421 1 0.478378 0.0208512 0.944463
422 1 0.602696 0.944008 0.460317
423 1 0.0158094 0.628114 0.164692
424 1 0.608821 0.968042 0.232465
425 1 0.315237 0.245448 0.0994713
426 1 0.573851 0.0568172 0.964704
427 1 0.753005 0.73225 0.247473
428 1 0.0557119 0.915945 0.845814
429 1 0.715646 0.593854 0.254403
430 1 0.324628 0.0910997 0.993196
431 1 0.759969 0.723191 0.0335384
432 1 0.563649 0.152574 0.812578
433 1 0.718505 0.852844 0.917734
434 1 0.909045 0.035212 0.980921
435 1 0.622209 0.192129 0.150132
436 1 0.0078451 0.110108 0.359677
437 1 0.126793 0.995075 0.00408206
438 1 0.584865 0.292563 0.840656
439 1 0.106884 0.794974 0.72167
440 1 0.351774 0.0228475 0.424727
441 1 0.854018 0.0489813 0.323846
442 1 0.243753 0.174019 0.0490562
443 1 0.789647 0.314442 0.0542708
444 1 0.174084 0.00858596 0.348083
445 1 0.989829 0.223605 0.659661
446 1 0.919884 0.209809 0.80214
447 1 0.646849 0.196315 0.605152
448 1 0.524908 0.0247846 0.892037
449 1 0.957924 0.0692177 0.162743
450 1 0.200675 0.0443699 0.389463
451 1 0.848183 0.984697 0.822179
452 1 0.598613 0.740935 0.321119
453 1 0.101342 0.312355 0.826919
454 1 0.210829 0.8669 0.884124
455 1 0.418841 0.656496 0.306619
456 1 0.76205 0.716815 0.960114
457 1 0.122742 0.949975 0.19125
458 1 0.342663 0.247522 0.275073
459 1 0.737096 0.955381 0.494958
460 1 0.242155 0.490733 0.754269
461 1 0.351736 0.844444 0.507365
462 1 0.0510943 0.0182472 0.0708399
463 1 0.347943 0.794775 0.636947
464 1 0.608063 0.784736 0.258129
465 1 0.736763 0.955223 0.917992
466 1 0.57601 0.276877 0.964039
467 1 0.606202 0.885592 0.98273
468 1 0.452887 0.143877 0.265254
469 1 0.101288 0.283551 0.179014
470 1 0.697739 0.342402 0.755296
471 1 0.0523622 0.384645 0.126897
472 1 0.983011 0.240188 0.0206624
473 1 0.0835406 0.094794 0.484813
474 1 0.200709 0.382524 0.667492
475 1 0.664532 0.920326 0.581949
476 1 0.825509 0.946304 0.876892
477 1 0.782726 0.838582 0.233508
478 1 0.270165 0.261139 0.233659
479 1 0.91578 0.239938 0.597954
480 1 0.468299 0.778231 0.216369
481 1 0.41428 0.557074 0.865181
482 1 0.956859 0.0408279 0.869832
483 1 0.359135 0.253104 0.0614762
484 1 0.048016 0.28217 0.233382
485 1 0.992069 0.284001 0.162918
486 1 0.0909422 0.536892 0.429818
487 1 0.0953578 0.448864 0.939271
488 1 0.00530832 0.822049 0.889021
489 1 0.943783 0.279926 0.981065
490 1 0.0780773 0.433589 0.568037
491 1 0.574081 0.148603 0.749402
492 1 0.246435 0.4593 0.94008
493 1 0.20544 0.119351 0.743047
494 1 0.319076 0.0190886 0.7506
495 1 0.339298 0.977239 0.382535
496 1 0.532831 0.454893 0.828272
497 1 0.104378 0.794795 0.0592234
498 1 0.293064 0.2372 0.175331
499 1 0.109188 0.0246827 0.116552
500 1 0.308963 0.868029 0.804037
501 1 0.563908 0.121794 0.069706
502 1 0.197959 0.365172 0.188472
503 1 0.494728 0.567369 0.256796
504 1 0.54301 0.643919 0.859121
505 1 0.773561 0.850593 0.596496
506 1 0.35519 0.472982 0.247738
507 1 0.899722 0.156421 0.386376
508 1 0.695786 0.184824 0.891619
509 1 0.682573 0.385775 0.00593125
510 1 0.134247 0.932302 0.0922463
511 1 0.722319 0.264893 0.274856
512 1 0.448101 0.638426 0.509183
513 1 0.482068 0.235327 0.211171
514 1 0.89288 0.632863 0.0208185
515 1 0.169958 0.810725 0.175278
516 1 0.740533 0.26543 0.21717
517 1 0.848348 0.999285 0.886338
518 1 0.98759 0.759899 0.452164
519 1 0.880546 0.326652 0.456682
520 1 0.128738 0.0537823 0.337246
521 1 0.359791 0.228328 0.85856
522 1 0.294167 0.551396 0.39449
523 1 0.659863 0.979356 0.0394469
524 1 0.144509 0.433275 0.0733975
525 1 0.132045 0.423907 0.790864
526 1 0.468586 0.896719 0.887448
527 1 0.0557684 0.912693 0.00821162
528 1 0.28547 0.29443 0.740271
529 1 0.652942 0.330845 0.141347
530 1 0.109318 0.427289 0.170468
531 1 0.982195 0.159501 0.0906979
532 1 0.244998 0.236136 0.89903
533 1 0.391601 0.373388 0.516521
534 1 0.690401 0.92974 0.639928
535 1 0.367355 0.528767 0.23098
536 1 0.313409 0.37725 0.28786
537 1 0.475224 0.23748 0.720663
538 1 0.941255 0.480327 0.928379
539 1 0.210365 0.85336 0.399279
540 1 0.349847 0.389554 0.194884
541 1 0.392662 0.442506 0.153748
542 1 0.48698 0.743291 0.257099
543 1 0.453888 0.079529 0.424052
544 1 0.0835827 0.242057 0.93186
545 1 0.477271 0.465748 0.317701
546 1 0.329414 0.529641 0.681453
547 1 0.54248 0.420663 0.774582
548 1 0.820094 0.0640057 0.0658852
549 1 0.861648 0.780899 0.0425277
550 1 0.87588 0.2658 0.187486
551 1 0.967003 0.311547 0.757732
552 1 0.137765 0.191948 0.931637
553 1 0.751004 0.0410966 0.234803
554 1 0.712501 0.514526 0.448735
555 1 0.912206 0.475771 0.0786077
556 1 0.0923387 0.178147 0.756416
557 1 0.147165 0.378214 0.951803
558 1 0.846768 0.203292 0.0902298
559 1 0.965293 0.986202 0.252928
560 1 0.779834 0.266951 0.320129
561 1 0.638637 0.0986117 0.395479
562 1 0.0144174 0.418046 0.169209
563 1 0.154592 0.495225 0.00180852
564 1 0.641977 0.0948976 0.309418
565 1 0.028466 0.868631 0.0448252
566 1 0.855342 0.669306 0.287897
567 1 0.438444 0.253155 0.473472
568 1 0.911343 0.423656 0.247014
569 1 0.958396 0.169682 0.975426
570 1 0.14102 0.360433 0.175558
571 1 0.911538 0.46271 0.0226345
572 1 0.162569 0.68803 0.0300488
573 1 0.196211 0.654996 0.713625
574 1 0.243444 0.265838 0.695237
575 1 0.475993 0.3777 0.60278
576 1 0.367368 0.906855 0.108757
577 1 0.164628 0.389827 0.0324157
578 1 0.407693 0.13675 0.973689
579 1 0.463029 0.548501 0.905978
580 1 0.521944 0.717308 0.0767875
581 1 0.657413 0.584661 0.938927
582 1 0.615135 0.461869 0.172828
583 1 0.379586 0.403062 0.928063
584 1 0.0272873 0.255149 0.0717303
585 1 0.4127 0.401676 0.735875
586 1 0.914074 0.253043 0.866727
587 1 0.194011 0.81312 0.270167
588 1 0.251566 0.262245 0.135773
589 1 0.515912 0.458565 0.596551
590 1 0.849782 0.327493 0.0907035
591 1 0.844644 0.240832 0.985656
592 1 0.666018 0.497992 0.935712
593 1 0.620745 0.371115 0.289102
594 1 0.85239 0.465558 0.316297
595 1 0.533361 0.176519 0.102779
596 1 0.72578 0.205076 0.279446
597 1 0.975585 0.566493 0.957398
598 1 0.102859 0.782069 0.305983
599 1 0.820032 0.241106 0.0378932
600 1 0.789837 0.948136 0.819308
601 1 0.951253 0.171554 0.143594
602 1 0.169977 0.370215 0.23735
603 1 0.10964 0.170373 0.324213
604 1 0.335853 0.821469 0.398063
605 1 0.161064 0.943958 0.990474
606 1 0.77197 0.487699 0.799808
607 1 0.160839 0.632759 0.757306
608 1 0.245031 0.0308318 0.85431
609 1 0.892085 0.679025 0.0849379
610 1 0.859793 0.413487 0.12989
611 1 0.336471 0.696425 0.236217
612 1 0.21896 0.928721 0.119479
613 1 0.399175 0.394281 0.109062
614 1 0.140131 0.460215 0.138926
615 1 0.274296 0.110452 0.998229
616 1 0.214594 0.688066 0.156241
617 1 0.788708 0.36484 0.794149
618 1 0.251402 0.413894 0.74513
619 1 0.178965 0.766514 0.327485
620 1 0.0880116 0.0471816 0.197439
621 1 0.556721 0.56781 0.150453
622 1 0.610013 0.222294 0.329752
623 1 0.76878 0.519118 0.956287
624 1 0.659338 0.11999 0.939179
625 1 0.130168 0.798014 0.804546
626 1 0.957659 0.332446 0.0515257
627 1 0.581423 0.339486 0.955904
628 1 0.168535 0.45231 0.234233
629 1 0.817936 0.655679 0.336294
630 1 0.543785 0.777193 0.242809
631 1 0.0492404 0.635373 0.111344
632 1 0.916379 0.625936 0.174722
633 1 0.0690474 0.383091 0.277114
634 1 0.864122 0.519712 0.089264
635 1 0.965928 0.39004 0.147726
636 1 0.721911 0.782914 0.0516335
637 1 0.629529 0.160588 0.209548
638 1 0.756972 0.591211 0.864182
639 1 0.913991 0.11696 0.854763
640 1 0.365959 0.50805 0.974009
641 1 0.384758 0.830711 0.893246
642 1 0.362468 0.826296 0.302984
643 1 0.627616 0.59944 0.0432847
644 1 0.269167 0.558427 0.0535088
645 1 0.0233789 0.202545 0.508866
646 1 0.400297 0.621504 0.377714
647 1 0.450327 0.802015 0.29037
648 1 0.102462 0.737481 0.246145
649 1 0.0884703 0.905333 0.156807
650 1 0.0850372 0.0521214 0.0287588
651 1 0.0772946 0.777764 0.804863
652 1 0.123585 0.831618 0.981903
653 1 0.79137 0.418713 0.732673
654 1 0.867641 0.268745 0.429675
655 1 0.141472 0.511602 0.390914
656 1 0.304686 0.521234 0.626154
657 1 0.439048 0.850306 0.932847
658 1 0.761272 0.595395 0.48583
659 1 0.612837 0.243061 0.809151
660 1 0.367139 0.795169 0.0245363
661 1 0.277897 0.474605 0.487074
662 1 0.765709 0.696286 0.369605
663 1 0.424002 0.984019 0.309302
664 1 0.449993 0.63923 0.048749
665 1 0.510266 0.657392 0.394547
666 1 0.0396478 0.909372 0.264268
667 1 0.366075 0.499169 0.419796
668 1 0.0445346 0.53849 0.961609
669 1 0.694213 0.471904 0.489319
670 1 0.823597 0.560327 0.70315
671 1 0.722871 0.345249 0.0618041
672 1 0.820378 0.331808 0.909456
673 1 0.916203 0.520977 0.226383
674 1 0.180538 0.748265 0.12682
675 1 0.0996384 0.316396 0.736771
676 1 0.127875 0.265991 0.382356
677 1 0.519813 0.679265 0.998749
678 1 0.86183 0.416974 0.897943
679 1 0.986009 0.0533924 0.282151
680 1 0.963147 0.611906 0.130222
681 1 0.48942 0.157906 0.410775
682 1 0.820023 0.68245 0.984163
683 1 0.318076 0.00282 0.934781
684 1 0.712742 0.865087 0.0849023
685 1 0.0856209 0.748823 0.950837
686 1 0.182145 0.643101 0.589491
687 1 0.821849 0.887584 0.487785
688 1 0.286869 0.879478 0.980725
689 1 0.119843 0.373175 0.748739
690 1 0.281193 0.864838 0.174886
691 1 0.5613 0.0149989 0.429549
692 1 0.807641 0.796639 0.153208
693 1 0.446139 0.715423 0.199354
694 1 0.738914 0.659546 0.249252
695 1 0.127391 0.491029 0.546715
696 1 0.405534 0.146741 0.369425
697 1 0.778043 0.342602 0.121768
698 1 0.0793324 0.313755 0.894782
699 1 0.463434 0.692168 0.00403813
700 1 0.679073 0.592306 0.389793
701 1 0.503228 0.0204098 0.0647894
702 1 0.689952 0.986594 0.940444
703 1 0.495566 0.358829 0.48004
704 1 0.00826977 0.105818 0.0635004
705 1 0.276803 0.694137 0.980075
706 1 0.813855 0.831489 0.341609
707 1 0.964391 0.711526 0.230049
708 1 0.682491 0.0651497 0.557107
709 1 0.333539 0.880844 0.41331
710 1 0.948946 0.896183 0.589804
711 1 0.349473 0.619799 0.914705
712 1 0.944689 0.830961 0.888107
713 1 0.395227 0.676423 0.698468
714 1 0.0223995 0.441543 0.823338
715 1 0.00987874 0.419272 0.265253
716 1 0.526886 0.409259 0.63306
717 1 0.582108 0.813433 0.146943
718 1 0.30647 0.576049 0.98299
719 1 0.378699 0.0800608 0.429908
720 1 0.803029 0.864278 0.390397
721 1 0.979384 0.923611 0.259699
722 1 0.496839 0.576784 0.954648
723 1 0.367414 0.626827 0.201976
724 1 0.953143 0.73284 0.165402
725 1 0.163235 0.191922 0.660247
726 1 0.388495 0.314178 0.220325
727 1 0.919731 0.302082 0.207651
728 1 0.745152 0.534094 0.816763
729 1 0.31058 0.822536 0.341289
730 1 0.961984 0.772794 0.767106
731 1 0.456998 0.62825 0.38742
732 1 0.36395 0.682957 0.362081
733 1 0.145725 0.725297 0.192986
734 1 0.589885 0.688333 0.956158
735 1 0.155821 0.781621 0.485472
736 1 0.100605 0.166088 0.900541
737 1 0.336796 0.593286 0.239881
738 1 0.195534 0.22363 0.249471
739 1 0.507776 0.829777 0.269907
740 1 0.186792 0.817102 0.989371
741 1 0.888932 0.720092 0.5339
742 1 0.570778 0.827862 0.25959
743 1 0.390801 0.741311 0.592647
744 1 0.559693 0.123268 0.485279
745 1 0.55141 0.961138 0.64691
746 1 0.607813 0.724356 0.0627647
747 1 0.453594 0.0761342 0.092047
748 1 0.0818835 0.695245 0.0986041
749 1 0.760679 0.21615 0.0622021
750 1 0.720293 0.194308 0.121268
751 1 0.709471 0.691601 0.0668592
752 1 0.513695 0.611203 0.131304
753 1 0.596053 0.0803498 0.240082
754 1 0.10341 0.117349 0.772634
755 1 0.905783 0.327974 0.0120989
756 1 0.865486 0.626334 0.115109
757 1 0.390356 0.0265075 0.50383
758 1 0.966119 0.645212 0.0847237
759 1 0.318705 0.920253 0.367583
760 1 0.639868 0.912642 0.944709
761 1 0.0677529 0.482814 0.173278
762 1 0.311677 0.170593 0.128718
763 1 0.00491234 0.877464 0.973395
764 1 0.879873 0.0781702 0.103835
765 1 0.0261362 0.00998344 0.846844
766 1 0.401072 0.289329 0.956574
767 1 0.213974 0.836344 0.55544
768 1 0.939349 0.6493 0.968402
769 1 0.16306 0.810188 0.674459
770 1 0.907867 0.00222477 0.240186
771 1 0.175687 0.894755 0.847082
772 1 0.956298 0.139191 0.799949
773 1 0.354575 0.0989709 0.341851
774 1 0.132143 0.369858 0.535063
775 1 0.30611 0.936598 0.433402
776 1 0.485976 0.958508 0.131327
777 1 0.753608 0.168198 0.868326
778 1 0.407041 0.790173 0.632668
779 1 0.149586 0.998827 0.225215
780 1 0.266186 0.818553 0.617894
781 1 0.511653 0.318979 0.137809
782 1 0.343375 0.708725 0.432936
783 1 0.621853 0.103709 0.887524
784 1 0.469335 0.115491 0.82153
785 1 0.865101 0.612292 0.301849
786 1 0.914204 0.0231713 0.121653
787 1 0.770947 0.107546 0.0410695
788 1 0.562907 0.0855635 0.901057
789 1 0.707594 0.775384 0.402608
790 1 0.582417 0.915114 0.296306
791 1 0.379489 0.968623 0.271016
792 1 0.338162 0.183723 0.299643
793 1 0.745743 0.0064082 0.287303
794 1 0.428514 0.755558 0.267407
795 1 0.142829 0.89377 0.201054
796 1 0.626252 0.724667 0.201653
797 1 0.986787 0.0130947 0.156097
798 1 0.837291 0.283266 0.146782
799 1 0.318277 0.873313 0.120356
800 1 0.780815 0.749498 0.875152
801 1 0.89494 0.861114 0.827818
802 1 0.270514 0.979155 0.164478
803 1 0.162093 0.178715 0.161757
804 1 0.538418 0.411891 0.899551
805 1 0.712927 0.954609 0.280327
806 1 0.214343 0.358547 0.993905
807 1 0.774654 0.329956 0.374329
808 1 0.426661 0.188757 0.0129225
809 1 0.899747 0.100083 0.0115519
810 1 0.424892 0.814543 0.415143
811 1 0.120775 0.118303 0.351692
812 1 0.131565 0.976271 0.374857
813 1 0.0869464 0.195102 0.513147
814 1 0.332489 0.972889 0.118533
815 1 0.250987 0.496065 0.658012
816 1 0.363605 0.972911 0.326015
817 1 0.0154825 0.716842 0.406086
818 1 0.671443 0.901941 0.368101
819 1 0.311444 0.761341 0.578379
820 1 0.107064 0.997238 0.0648001
821 1 0.693408 0.103436 0.346252
822 1 0.0588847 0.0836252 0.37678
823 1 0.43548 0.68285 0.542685
824 1 0.342531 0.350918 0.243714
825 1 0.62643 0.0468051 0.206895
826 1 0.977873 0.717983 0.291973
827 1 0.801028 0.895806 0.0190435
828 1 0.649789 0.672183 0.0716745
829 1 0.927677 0.230936 0.417941
830 1 0.38892 0.934156 0.548544
831 1 0.444017 0.757075 0.961251
832 1 0.556392 0.807685 0.974359
833 1 0.450893 0.301018 0.152291
834 1 0.621112 0.0475785 0.931849
835 1 0.0364335 0.328708 0.843093
836 1 0.843844 0.727921 0.0882853
837 1 0.642523 0.84093 0.0109327
838 1 0.864167 0.285018 0.245383
839 1 0.824845 0.114375 0.244046
840 1 0.03499 0.142253 0.318043
841 1 0.178203 0.090753 0.910044
842 1 0.123778 0.848289 0.773782
843 1 0.0647685 0.978396 0.192191
844 1 0.50929 0.736952 0.818842
845 1 0.647322 0.282634 0.311508
846 1 0.1536 0.0370107 0.033247
847 1 0.143483 0.906197 0.777427
848 1 0.0172993 0.584206 0.216689
849 1 0.0729658 0.172051 0.827056
850 1 0.210753 0.0664827 0.0333921
851 1 0.337477 0.0212865 0.648498
852 1 0.154995 0.867014 0.948087
853 1 0.190112 0.639591 0.862647
854 1 0.318747 0.372511 0.141421
855 1 0.0610683 0.236977 0.829441
856 1 0.246116 0.192342 0.568069
857 1 0.140862 0.417716 0.400727
858 1 0.53051 0.412071 0.0788314
859 1 0.719324 0.809821 0.555215
860 1 0.578815 0.406291 0.446283
861 1 0.543165 0.181508 0.982736
862 1 0.475942 0.31102 0.345257
863 1 0.64894 0.839029 0.490325
864 1 0.56267 0.493161 0.526563
865 1 0.674933 0.250475 0.142448
866 1 0.920575 0.274405 0.924715
867 1 0.770095 0.96369 0.136289
868 1 0.820707 0.208767 0.3285
869 1 0.109329 0.221025 0.157382
870 1 0.370189 0.185551 0.133738
871 1 0.818999 0.267722 0.200451
872 1 0.377986 0.109136 0.166192
873 1 0.773657 0.209436 0.768881
874 1 0.669227 0.148804 0.134452
875 1 0.530461 0.797261 0.373818
876 1 0.910554 0.729043 0.881553
877 1 0.68572 0.431758 0.551086
878 1 0.877857 0.987744 0.175569
879 1 0.994868 0.227365 0.123374
880 1 0.00905117 0.944819 0.316162
881 1 0.559974 0.694234 0.508463
882 1 0.751409 0.210468 0.931579
883 1 0.249879 0.232536 0.511972
884 1 0.0142214 0.440465 0.113901
885 1 0.0287895 0.735764 0.256927
886 1 0.927273 0.0858521 0.57186
887 1 0.953499 0.981138 0.0421074
888 1 0.524791 0.21548 0.159688
889 1 0.149035 0.445721 0.973937
890 1 0.840496 0.428381 0.0207179
891 1 0.420084 0.425147 0.982286
892 1 0.756395 0.150873 0.938195
893 1 0.219309 0.503231 0.846588
894 1 0.140987 0.589562 0.60923
895 1 0.661882 0.774221 0.497048
896 1 0.111063 0.139079 0.0559631
897 1 0.133913 0.0580833 0.977576
898 1 0.821312 0.410397 0.193217
899 1 0.39548 0.000550718 0.157506
900 1 0.438836 0.299705 0.418929
901 1 0.567779 0.369164 0.668306
902 1 0.446417 0.325839 0.976543