ITEM: TIMESTEP
7100
ITEM: NUMBER OF ATOMS
4000
ITEM: BOX BOUNDS pp pp pp
0.0000000000000000e+00 1.6795961913825074e+01
0.0000000000000000e+00 1.6795961913825074e+01
0.0000000000000000e+00 1.6795961913825074e+01
ITEM: ATOMS id type xs ys zs
1 1 0.00362836 0.99931 0.996716
2 1 0.0504492 0.0520181 0.000816913
3 1 0.0490722 0.999989 0.050077
4 1 0.999225 0.0503267 0.0480881
5 1 0.0996706 0.998256 0.000390688
6 1 0.149169 0.046615 1.00007
7 1 0.149282 0.999061 0.0518596
8 1 0.103449 0.0452755 0.0504719
9 1 0.199045 0.997849 0.999545
10 1 0.250964 0.0500802 0.997967
11 1 0.25146 0.998465 0.0504996
12 1 0.202207 0.0429172 0.048379
13 1 0.295814 0.996915 0.00316968
14 1 0.347822 0.0497225 0.000839193
15 1 0.346844 0.00291888 0.0484994
16 1 0.300329 0.0527828 0.0491261
17 1 0.395616 0.996494 0.00208443
18 1 0.452265 0.0517143 0.00246511
19 1 0.448082 0.00166398 0.0533327
20 1 0.399501 0.0483386 0.0489697
21 1 0.501833 0.999153 0.9996
22 1 0.550127 0.0497144 0.997558
23 1 0.546645 0.995879 0.050399
24 1 0.502029 0.0468391 0.0500527
25 1 0.60371 0.999933 0.00264778
26 1 0.650856 0.0485059 0.001629
27 1 0.651954 0.996312 0.0506665
28 1 0.598594 0.0483978 0.0501164
29 1 0.701578 0.999139 0.997963
30 1 0.749011 0.0514088 0.000276801
31 1 0.749878 0.000655058 0.050607
32 1 0.700516 0.0500718 0.0529178
33 1 0.801842 0.996316 0.0011702
34 1 0.85025 0.0497582 0.998032
35 1 0.852968 0.998881 0.0490894
36 1 0.803121 0.0493633 0.0477078
37 1 0.900092 0.998355 0.000505333
38 1 0.949526 0.0499886 0.00334172
39 1 0.947743 0.00250623 0.0516046
40 1 0.901564 0.0491748 0.0523962
41 1 0.999851 0.0986958 1.0005
42 1 0.0468659 0.148898 0.000182347
43 1 0.0519224 0.0973192 0.0504351
44 1 0.997298 0.145317 0.0507556
45 1 0.0984866 0.0989075 0.00286932
46 1 0.14984 0.146051 0.996981
47 1 0.152274 0.0921435 0.0486094
48 1 0.0977958 0.153178 0.0500304
49 1 0.199115 0.0961575 -0.00022869
50 1 0.24701 0.149846 0.00100331
51 1 0.250356 0.100715 0.0489068
52 1 0.20109 0.148823 0.047724
53 1 0.298769 0.0999601 0.000399992
54 1 0.350185 0.153299 0.00415831
55 1 0.352075 0.102008 0.0491005
56 1 0.299828 0.149326 0.0493155
57 1 0.401007 0.10421 0.998804
58 1 0.450856 0.154905 0.998764
59 1 0.451451 0.102941 0.0506083
60 1 0.399516 0.152264 0.0501769
61 1 0.501443 0.101672 0.00366043
62 1 0.549286 0.147663 0.000759664
63 1 0.550359 0.0979249 0.0490275
64 1 0.499617 0.150896 0.0504491
65 1 0.600275 0.101448 0.00099548
66 1 0.64927 0.150236 0.00238515
67 1 0.649891 0.100152 0.0474393
68 1 0.60068 0.147668 0.0490328
69 1 0.698292 0.0988329 0.999422
70 1 0.752422 0.149811 0.999273
71 1 0.75108 0.0993549 0.0497893
72 1 0.703009 0.147921 0.0458815
73 1 0.800269 0.0970527 0.996325
74 1 0.850347 0.149537 0.000907688
75 1 0.851531 0.0988194 0.0524775
76 1 0.800843 0.148413 0.0480191
77 1 0.900295 0.0968763 0.0015999
78 1 0.95237 0.1529 0.997647
79 1 0.948703 0.0989918 0.0486845
80 1 0.901301 0.152502 0.0485189
81 1 0.998757 0.201198 0.001702
82 1 0.048922 0.248586 0.00145533
83 1 0.0472303 0.199831 0.0547901
84 1 0.0012367 0.249409 0.0521138
85 1 0.102048 0.200591 0.998895
86 1 0.149617 0.250296 0.0026554
87 1 0.148481 0.199943 0.05411
88 1 0.100942 0.249226 0.0490224
89 1 0.197485 0.199789 0.00389672
90 1 0.249194 0.248894 0.00199001
91 1 0.248115 0.202261 0.0486613
92 1 0.197177 0.252058 0.0525853
93 1 0.301921 0.199848 0.998352
94 1 0.349135 0.249868 0.000524833
95 1 0.35307 0.203705 0.0508991
96 1 0.299027 0.24972 0.0461602
97 1 0.401527 0.200602 0.998389
98 1 0.450733 0.24872 0.00165442
99 1 0.450154 0.200597 0.0486791
100 1 0.402342 0.252917 0.0514013
101 1 0.500753 0.200066 0.997393
102 1 0.554624 0.248813 0.998236
103 1 0.54971 0.199509 0.0474705
104 1 0.504074 0.248666 0.0453051
105 1 0.599337 0.197029 0.000785531
106 1 0.649227 0.24869 0.997471
107 1 0.649758 0.197752 0.0505972
108 1 0.602931 0.247463 0.0488305
109 1 0.699765 0.197794 0.997647
110 1 0.752134 0.252942 0.000392285
111 1 0.750847 0.19979 0.0493444
112 1 0.701114 0.247844 0.0481846
113 1 0.803672 0.200425 0.00235382
114 1 0.850555 0.250614 0.00160059
115 1 0.851664 0.202814 0.051176
116 1 0.801418 0.252802 0.0505257
117 1 0.902134 0.200254 0.999024
118 1 0.951263 0.253922 0.000940079
119 1 0.949501 0.200345 0.0506683
120 1 0.904469 0.252571 0.050772
121 1 0.00180388 0.302095 0.0025732
122 1 0.0524713 0.354222 0.00447798
123 1 0.0484123 0.298502 0.0540003
124 1 0.00156839 0.352193 0.0518118
125 1 0.0972984 0.29825 0.000789574
126 1 0.148423 0.352129 0.00273226
127 1 0.149741 0.302217 0.0527514
128 1 0.101415 0.347642 0.0546383
129 1 0.195896 0.299155 0.0015876
130 1 0.247097 0.351259 0.00110603
131 1 0.247113 0.299094 0.0535392
132 1 0.198868 0.35002 0.0529641
133 1 0.298901 0.303267 0.997303
134 1 0.349018 0.348203 0.995573
135 1 0.350278 0.299332 0.0491415
136 1 0.300798 0.348893 0.049363
137 1 0.399444 0.304148 0.997448
138 1 0.45182 0.352704 0.997085
139 1 0.449462 0.302692 0.0488084
140 1 0.399087 0.347693 0.0489165
141 1 0.499843 0.300183 0.999516
142 1 0.548611 0.350405 0.997142
143 1 0.551891 0.298622 0.0438837
144 1 0.497922 0.349098 0.0483177
145 1 0.603323 0.301226 0.997913
146 1 0.651898 0.351805 0.00133647
147 1 0.65518 0.296716 0.0469963
148 1 0.598847 0.34792 0.0485242
149 1 0.702069 0.299963 0.999876
150 1 0.750004 0.356319 0.00136297
151 1 0.749134 0.300104 0.052705
152 1 0.699969 0.349591 0.0490137
153 1 0.800129 0.30423 0.998312
154 1 0.850817 0.351833 0.000540376
155 1 0.85275 0.301986 0.0521739
156 1 0.80446 0.352528 0.0508385
157 1 0.902891 0.302364 0.999262
158 1 0.952555 0.351277 0.999305
159 1 0.955699 0.304603 0.0512572
160 1 0.902741 0.350385 0.0531316
161 1 0.00457534 0.399722 0.00151275
162 1 0.0484824 0.451172 0.00115981
163 1 0.0528075 0.399041 0.0549647
164 1 0.00422474 0.451567 0.0523944
165 1 0.10135 0.398672 0.00118496
166 1 0.151519 0.449907 0.999699
167 1 0.152128 0.400076 0.0517912
168 1 0.099155 0.449515 0.050168
169 1 0.196305 0.399671 0.999822
170 1 0.24676 0.450872 0.00116046
171 1 0.25262 0.398653 0.0495424
172 1 0.201157 0.450389 0.0499073
173 1 0.300681 0.398835 0.000876749
174 1 0.350778 0.449696 0.998747
175 1 0.351097 0.39708 0.0467342
176 1 0.30113 0.447283 0.0506822
177 1 0.400802 0.404093 0.998634
178 1 0.449657 0.448607 0.997795
179 1 0.450482 0.40072 0.0473014
180 1 0.403096 0.452376 0.0504889
181 1 0.503746 0.398998 0.00110762
182 1 0.549058 0.44911 0.999511
183 1 0.549354 0.400948 0.05349
184 1 0.499515 0.452039 0.0503829
185 1 0.597769 0.398169 0.00427318
186 1 0.651314 0.451753 0.00257002
187 1 0.650217 0.400454 0.0519268
188 1 0.599536 0.452552 0.0495987
189 1 0.698684 0.40492 0.00195422
190 1 0.750887 0.451436 0.999629
191 1 0.747099 0.405097 0.0500899
192 1 0.699343 0.453769 0.0519509
193 1 0.801192 0.403709 0.0060469
194 1 0.854589 0.451001 0.00601402
195 1 0.851544 0.403148 0.0538203
196 1 0.801518 0.454143 0.0541719
197 1 0.900908 0.399164 0.00235271
198 1 0.952332 0.450983 0.00547254
199 1 0.953664 0.401539 0.0523707
200 1 0.901543 0.449951 0.0547581
201 1 0.000735243 0.50291 0.000126452
202 1 0.0497254 0.550865 0.997866
203 1 0.0516144 0.499783 0.0552435
204 1 0.999018 0.55236 0.0500758
205 1 0.101436 0.498229 0.00151993
206 1 0.146988 0.549379 0.000171361
207 1 0.150064 0.498151 0.0497904
208 1 0.0990235 0.550423 0.0492761
209 1 0.199508 0.501029 0.00143386
210 1 0.249786 0.549589 0.998263
211 1 0.251338 0.498509 0.048907
212 1 0.201981 0.550987 0.0527932
213 1 0.302813 0.504936 1.00032
214 1 0.348688 0.551783 0.999778
215 1 0.35497 0.50032 0.050169
216 1 0.300746 0.550369 0.0507004
217 1 0.400169 0.500445 0.999314
218 1 0.449463 0.551621 0.00143167
219 1 0.450029 0.501761 0.0500903
220 1 0.402162 0.547904 0.0520883
221 1 0.498751 0.500701 0.000855952
222 1 0.550278 0.547292 4.80598e-05
223 1 0.549844 0.499438 0.0496087
224 1 0.50221 0.551617 0.0509832
225 1 0.60111 0.502543 0.99923
226 1 0.650455 0.551113 0.00151951
227 1 0.650653 0.499371 0.0515637
228 1 0.602776 0.549615 0.0534233
229 1 0.701992 0.500973 0.00562295
230 1 0.747248 0.553573 0.999591
231 1 0.752679 0.500985 0.0544538
232 1 0.702569 0.554009 0.0528473
233 1 0.798778 0.500031 0.00157634
234 1 0.849577 0.549196 0.000881402
235 1 0.849887 0.501377 0.0509872
236 1 0.797861 0.5515 0.049512
237 1 0.902121 0.498018 0.00215076
238 1 0.950142 0.549079 4.05643e-05
239 1 0.953135 0.501336 0.051883
240 1 0.901336 0.547829 0.0468688
241 1 0.999603 0.599864 0.000813399
242 1 0.0480359 0.648062 0.998662
243 1 0.049352 0.601624 0.048993
244 1 0.999105 0.643594 0.0484868
245 1 0.0978661 0.599142 0.00172702
246 1 0.152035 0.652402 0.99951
247 1 0.150813 0.599267 0.0493933
248 1 0.100773 0.64996 0.0478805
249 1 0.198311 0.598879 0.00123413
250 1 0.249122 0.649491 0.994875
251 1 0.24681 0.603133 0.047684
252 1 0.203528 0.652569 0.0510896
253 1 0.300836 0.601699 0.998571
254 1 0.349964 0.65102 0.000645276
255 1 0.351895 0.599504 0.0507395
256 1 0.300261 0.650811 0.0459994
257 1 0.399368 0.597814 1.00027
258 1 0.447353 0.650546 0.999211
259 1 0.452566 0.600989 0.0496075
260 1 0.397917 0.651314 0.048761
261 1 0.499313 0.602574 0.00134821
262 1 0.551387 0.650685 0.00241711
263 1 0.552664 0.599505 0.0491284
264 1 0.499587 0.654872 0.0517543
265 1 0.603805 0.600968 0.00150285
266 1 0.647871 0.651589 0.00151533
267 1 0.653123 0.601588 0.0524132
268 1 0.600777 0.648895 0.053782
269 1 0.696618 0.601226 0.00183281
270 1 0.749511 0.646022 0.000218298
271 1 0.747633 0.602267 0.0537683
272 1 0.702443 0.649048 0.0516204
273 1 0.80024 0.601176 0.000246952
274 1 0.848474 0.649762 0.999009
275 1 0.846529 0.600739 0.0485056
276 1 0.796896 0.647048 0.0519055
277 1 0.89737 0.597282 0.998339
278 1 0.946962 0.648532 0.000718111
279 1 0.952215 0.600709 0.0479438
280 1 0.898909 0.647122 0.0471185
281 1 0.000823982 0.696659 0.999983
282 1 0.0502416 0.750816 -5.95638e-05
283 1 0.0475177 0.696128 0.0532714
284 1 0.997517 0.750652 0.0467572
285 1 0.0964005 0.700303 0.00140059
286 1 0.149899 0.746271 0.00313146
287 1 0.149183 0.69718 0.0536699
288 1 0.100283 0.751045 0.0493956
289 1 0.202984 0.699918 0.996763
290 1 0.251478 0.751022 0.997167
291 1 0.249921 0.698594 0.0502511
292 1 0.200724 0.748354 0.0478858
293 1 0.298762 0.69965 0.99618
294 1 0.350822 0.750961 0.9959
295 1 0.354253 0.700764 0.0479704
296 1 0.298598 0.750917 0.0485289
297 1 0.401364 0.701909 0.998627
298 1 0.45122 0.750327 0.00286397
299 1 0.44991 0.699208 0.0494366
300 1 0.402505 0.75243 0.0508769
301 1 0.500175 0.700677 0.998895
302 1 0.549019 0.750283 0.999425
303 1 0.551085 0.704413 0.0505078
304 1 0.497642 0.752333 0.0531157
305 1 0.601253 0.698046 0.00096371
306 1 0.649331 0.749417 0.00353153
307 1 0.648337 0.700492 0.0508064
308 1 0.603008 0.749816 0.0520275
309 1 0.6975 0.696084 0.00436495
310 1 0.752427 0.746999 0.999967
311 1 0.749374 0.698377 0.0509068
312 1 0.700436 0.74797 0.0516306
313 1 0.799941 0.70008 0.00149389
314 1 0.84994 0.751063 0.998112
315 1 0.849447 0.699346 0.0469491
316 1 0.802161 0.748454 0.0510403
317 1 0.899512 0.700974 0.0024192
318 1 0.947581 0.751314 0.998735
319 1 0.948376 0.701673 0.0477617
320 1 0.902019 0.750429 0.0460569
321 1 0.999687 0.804101 0.998515
322 1 0.0496588 0.850516 0.999242
323 1 0.0508117 0.799244 0.0500324
324 1 0.997996 0.847612 0.0494429
325 1 0.10196 0.798885 0.000368227
326 1 0.152816 0.851108 0.000535616
327 1 0.150381 0.803233 0.0494547
328 1 0.100369 0.849077 0.0495384
329 1 0.201417 0.803438 0.995103
330 1 0.247227 0.854227 0.999805
331 1 0.250379 0.79994 0.050849
332 1 0.202604 0.852485 0.0477025
333 1 0.300348 0.800962 0.000960871
334 1 0.352349 0.850447 0.998851
335 1 0.352878 0.798672 0.0470729
336 1 0.301432 0.853855 0.0503433
337 1 0.402433 0.79957 0.999932
338 1 0.451014 0.851528 0.000854513
339 1 0.448845 0.802988 0.0485942
340 1 0.398289 0.847918 0.0521594
341 1 0.501652 0.799765 0.00257021
342 1 0.551363 0.846316 0.000579086
343 1 0.55282 0.801291 0.0513494
344 1 0.499126 0.847795 0.0518965
345 1 0.598589 0.798836 0.00182901
346 1 0.651753 0.847818 0.000665996
347 1 0.651522 0.798136 0.0521075
348 1 0.600149 0.849126 0.0526552
349 1 0.700403 0.797698 0.00168455
350 1 0.753857 0.851137 0.000686331
351 1 0.75249 0.800031 0.0494585
352 1 0.700183 0.848768 0.0505829
353 1 0.798295 0.799021 0.998981
354 1 0.850248 0.851074 0.998398
355 1 0.851088 0.79708 0.0488387
356 1 0.80153 0.846217 0.0475737
357 1 0.898646 0.801408 0.998015
358 1 0.944988 0.848849 0.997296
359 1 0.949482 0.800174 0.0489956
360 1 0.901587 0.849248 0.0510639
361 1 0.997094 0.901325 0.998338
362 1 0.0508197 0.949395 0.998101
363 1 0.0484357 0.897415 0.0516261
364 1 0.999444 0.948784 0.0538337
365 1 0.100951 0.899734 0.00313721
366 1 0.150711 0.948783 0.00110393
367 1 0.152763 0.900486 0.0485073
368 1 0.0990588 0.950618 0.0513588
369 1 0.197953 0.900718 0.999821
370 1 0.246928 0.947287 0.00109443
371 1 0.250033 0.898647 0.0479376
372 1 0.199201 0.949322 0.0537499
373 1 0.301914 0.900401 0.995087
374 1 0.348916 0.951808 0.99888
375 1 0.349532 0.899919 0.0468777
376 1 0.29551 0.945061 0.0482672
377 1 0.401481 0.900128 0.0038531
378 1 0.4492 0.950819 0.00432526
379 1 0.44824 0.901419 0.0513018
380 1 0.39956 0.948468 0.0531364
381 1 0.501648 0.898409 0.00136048
382 1 0.547812 0.948841 0.998911
383 1 0.552454 0.896011 0.0484368
384 1 0.498283 0.947915 0.049742
385 1 0.599765 0.896197 0.998846
386 1 0.653481 0.948816 0.996944
387 1 0.649993 0.896113 0.0474023
388 1 0.602739 0.950096 0.0508412
389 1 0.701911 0.900979 0.998712
390 1 0.751442 0.947629 0.998696
391 1 0.752068 0.898653 0.0495548
392 1 0.701726 0.949943 0.0491261
393 1 0.803488 0.902104 0.000148715
394 1 0.852784 0.951338 0.999789
395 1 0.853854 0.901879 0.048229
396 1 0.802078 0.946937 0.0497887
397 1 0.903116 0.899653 0.998704
398 1 0.954114 0.950622 0.000118193
399 1 0.950037 0.898854 0.051472
400 1 0.903674 0.95012 0.0475107
401 1 -0.000156842 1.00002 0.0998383
402 1 0.0495756 0.0484862 0.098595
403 1 0.0492139 0.995711 0.151568
404 1 0.00184342 0.0484759 0.151241
405 1 0.102721 0.00130033 0.101801
406 1 0.148945 0.0483145 0.100784
407 1 0.150871 0.000966741 0.149667
408 1 0.100557 0.0464093 0.149937
409 1 0.198003 0.000380757 0.100912
410 1 0.251133 0.0478222 0.0967856
411 1 0.247649 0.9999 0.151318
412 1 0.19862 0.0486962 0.149183
413 1 0.298011 0.998509 0.10184
414 1 0.348722 0.0504882 0.0993549
415 1 0.350327 0.00108696 0.149187
416 1 0.299501 0.0493508 0.152267
417 1 0.396541 0.00169645 0.099271
418 1 0.450459 0.0528282 0.0987416
419 1 0.448179 0.00264694 0.149411
420 1 0.399306 0.0529762 0.149578
421 1 0.499633 0.999584 0.101598
422 1 0.546553 0.0465465 0.104283
423 1 0.549912 0.999099 0.151365
424 1 0.498091 0.0494838 0.149707
425 1 0.598668 0.00149706 0.098965
426 1 0.65003 0.0521843 0.0987481
427 1 0.650846 0.995312 0.151039
428 1 0.599312 0.0500397 0.14841
429 1 0.701347 0.999203 0.102148
430 1 0.755165 0.0498772 0.097577
431 1 0.75266 0.999851 0.148684
432 1 0.701555 0.0518561 0.14679
433 1 0.801212 1.00003 0.0981388
434 1 0.846996 0.0499485 0.103226
435 1 0.850216 0.998518 0.153306
436 1 0.798099 0.0509434 0.15076
437 1 0.89977 0.000686276 0.101116
438 1 0.951255 0.0518864 0.101911
439 1 0.951952 0.999271 0.150764
440 1 0.902843 0.0500411 0.14878
441 1 0.00243353 0.0966097 0.0978325
442 1 0.0522782 0.147698 0.0997957
443 1 0.0515682 0.0983942 0.150781
444 1 0.00252668 0.147903 0.153788
445 1 0.0994412 0.098978 0.0963979
446 1 0.148911 0.148969 0.101599
447 1 0.146817 0.0990354 0.149256
448 1 0.0988259 0.149549 0.150767
449 1 0.201278 0.0960937 0.0972417
450 1 0.248652 0.150671 0.100214
451 1 0.248793 0.0976901 0.14778
452 1 0.201361 0.149646 0.150241
453 1 0.295805 0.100504 0.0977416
454 1 0.346177 0.148251 0.101403
455 1 0.348268 0.100947 0.152241
456 1 0.298884 0.153139 0.14802
457 1 0.399864 0.101066 0.0974494
458 1 0.45092 0.150277 0.0995394
459 1 0.448472 0.100197 0.150131
460 1 0.400075 0.147401 0.148625
461 1 0.500282 0.0980107 0.10221
462 1 0.547474 0.149521 0.100464
463 1 0.549254 0.0985679 0.148926
464 1 0.501381 0.151375 0.148686
465 1 0.59967 0.0977711 0.0981522
466 1 0.648458 0.147815 0.0998126
467 1 0.649064 0.0969359 0.149747
468 1 0.596801 0.148908 0.147511
469 1 0.699099 0.103177 0.0967362
470 1 0.750728 0.151998 0.101314
471 1 0.750339 0.101915 0.149298
472 1 0.698437 0.151915 0.146946
473 1 0.798281 0.100877 0.103307
474 1 0.849027 0.149243 0.100352
475 1 0.849799 0.0990852 0.149159
476 1 0.80177 0.149116 0.148935
477 1 0.90149 0.10129 0.103435
478 1 0.94798 0.151822 0.101754
479 1 0.952187 0.101763 0.150023
480 1 0.898236 0.151898 0.152167
481 1 0.000994943 0.198624 0.099203
482 1 0.0501685 0.25143 0.103446
483 1 0.0496018 0.201001 0.147786
484 1 0.999127 0.24959 0.150009
485 1 0.0983866 0.198484 0.101861
486 1 0.147705 0.25076 0.101848
487 1 0.149618 0.199924 0.152993
488 1 0.100834 0.251577 0.152173
489 1 0.200228 0.200659 0.101017
490 1 0.249542 0.252278 0.0999803
491 1 0.250035 0.202661 0.151463
492 1 0.199028 0.250755 0.149045
493 1 0.296762 0.201705 0.101145
494 1 0.351713 0.250659 0.0986646
495 1 0.348877 0.200663 0.151557
496 1 0.30028 0.250252 0.150525
497 1 0.401042 0.198959 0.102055
498 1 0.450291 0.250396 0.0997274
499 1 0.448228 0.201788 0.151023
500 1 0.396736 0.252256 0.148708
501 1 0.498206 0.203515 0.102501
502 1 0.549802 0.250547 0.0990937
503 1 0.550117 0.199213 0.14761
504 1 0.494924 0.251952 0.149045
505 1 0.597786 0.201159 0.0967765
506 1 0.647942 0.250903 0.0979601
507 1 0.647622 0.196827 0.147147
508 1 0.599954 0.249158 0.149554
509 1 0.699915 0.197983 0.0967714
510 1 0.75032 0.249569 0.0972417
511 1 0.752951 0.199945 0.147898
512 1 0.698312 0.252681 0.149538
513 1 0.801289 0.19804 0.0980289
514 1 0.852578 0.254591 0.0979112
515 1 0.848126 0.204023 0.150936
516 1 0.801289 0.25212 0.144877
517 1 0.902159 0.200925 0.10066
518 1 0.950083 0.252298 0.101631
519 1 0.951736 0.200581 0.148944
520 1 0.90127 0.249694 0.151753
521 1 -0.000286348 0.299444 0.103009
522 1 0.0487376 0.34732 0.104119
523 1 0.0471933 0.3 0.152718
524 1 0.999191 0.351514 0.154773
525 1 0.0986341 0.298296 0.102701
526 1 0.151587 0.351272 0.0997285
527 1 0.149616 0.300754 0.152389
528 1 0.101164 0.351097 0.149818
529 1 0.196489 0.299827 0.101182
530 1 0.251268 0.349844 0.098641
531 1 0.248959 0.30263 0.14943
532 1 0.19795 0.349389 0.150581
533 1 0.300574 0.300686 0.101555
534 1 0.351468 0.350981 0.100644
535 1 0.350565 0.301222 0.147881
536 1 0.30173 0.352599 0.149182
537 1 0.400184 0.301783 0.0990825
538 1 0.45278 0.348907 0.0979268
539 1 0.448258 0.301 0.151677
540 1 0.396774 0.349619 0.150498
541 1 0.500942 0.299308 0.0958001
542 1 0.547192 0.347872 0.0958029
543 1 0.546093 0.299892 0.1533
544 1 0.498292 0.35264 0.151083
545 1 0.596145 0.297513 0.096372
546 1 0.646833 0.350754 0.0967239
547 1 0.650723 0.301792 0.14925
548 1 0.5984 0.350048 0.148045
549 1 0.701283 0.298397 0.0988944
550 1 0.753563 0.35152 0.0963501
551 1 0.75089 0.300681 0.143228
552 1 0.700106 0.34978 0.145516
553 1 0.8016 0.303617 0.0977566
554 1 0.850983 0.348126 0.103353
555 1 0.850622 0.298692 0.150512
556 1 0.80087 0.354521 0.149206
557 1 0.903361 0.303539 0.101611
558 1 0.951383 0.356026 0.102207
559 1 0.95155 0.301467 0.152103
560 1 0.900763 0.351699 0.155878
561 1 0.001442 0.399329 0.102823
562 1 0.0530323 0.448797 0.100778
563 1 0.0495298 0.399107 0.151023
564 1 0.00146789 0.451594 0.14938
565 1 0.0997689 0.397489 0.104986
566 1 0.146879 0.445887 0.101688
567 1 0.15035 0.397292 0.155388
568 1 0.0985642 0.449181 0.151156
569 1 0.20191 0.400846 0.0985175
570 1 0.250143 0.449086 0.0997552
571 1 0.249446 0.39712 0.148381
572 1 0.19907 0.446254 0.153316
573 1 0.302495 0.40238 0.10104
574 1 0.35313 0.451122 0.098732
575 1 0.351626 0.39864 0.149792
576 1 0.298261 0.449609 0.15166
577 1 0.401902 0.399127 0.0986555
578 1 0.452694 0.448147 0.100173
579 1 0.449297 0.404301 0.152218
580 1 0.398376 0.447304 0.149467
581 1 0.501027 0.39893 0.102053
582 1 0.55199 0.450199 0.10061
583 1 0.550417 0.401931 0.148857
584 1 0.501837 0.449975 0.150888
585 1 0.599595 0.400289 0.0981683
586 1 0.649672 0.449422 0.103072
587 1 0.648957 0.398873 0.149279
588 1 0.599898 0.449959 0.151592
589 1 0.700117 0.40021 0.10019
590 1 0.748231 0.452448 0.0983529
591 1 0.749492 0.399971 0.148719
592 1 0.701399 0.453089 0.149801
593 1 0.802186 0.399407 0.10199
594 1 0.851977 0.454123 0.0998706
595 1 0.852349 0.400729 0.152712
596 1 0.803749 0.448818 0.150554
597 1 0.90014 0.402015 0.105404
598 1 0.950087 0.44998 0.103348
599 1 0.950741 0.402312 0.154641
600 1 0.90262 0.451499 0.153419
601 1 0.0020284 0.504259 0.102131
602 1 0.0519706 0.554075 0.0992133
603 1 0.056116 0.499887 0.150766
604 1 0.00145615 0.551387 0.150325
605 1 0.102505 0.500035 0.100931
606 1 0.150647 0.552341 0.100992
607 1 0.151615 0.502294 0.149886
608 1 0.102057 0.552606 0.152728
609 1 0.200074 0.498043 0.100309
610 1 0.251109 0.548677 0.101203
611 1 0.251256 0.502647 0.15308
612 1 0.199696 0.551656 0.153122
613 1 0.303013 0.499259 0.0999836
614 1 0.353363 0.55372 0.103492
615 1 0.351172 0.497582 0.150906
616 1 0.302075 0.548379 0.148399
617 1 0.403879 0.500742 0.101733
618 1 0.450718 0.55154 0.104658
619 1 0.448625 0.496857 0.15176
620 1 0.399456 0.548638 0.151211
621 1 0.500278 0.498586 0.105279
622 1 0.550356 0.548856 0.0999802
623 1 0.550821 0.498124 0.151754
624 1 0.500914 0.548379 0.153891
625 1 0.603509 0.499263 0.103353
626 1 0.649611 0.553069 0.100792
627 1 0.649301 0.500847 0.153498
628 1 0.599997 0.548922 0.153616
629 1 0.699313 0.503461 0.102448
630 1 0.748678 0.546875 0.103922
631 1 0.752369 0.500655 0.1532
632 1 0.700502 0.552141 0.155253
633 1 0.79944 0.502745 0.104381
634 1 0.852313 0.550971 0.102187
635 1 0.851232 0.50111 0.150571
636 1 0.799145 0.552708 0.150947
637 1 0.901386 0.500354 0.0997151
638 1 0.949184 0.551991 0.0976906
639 1 0.951791 0.503818 0.150666
640 1 0.899639 0.551813 0.149241
641 1 -0.00039133 0.598072 0.100456
642 1 0.0496465 0.647183 0.100911
643 1 0.0479791 0.599091 0.154894
644 1 0.999723 0.650299 0.148375
645 1 0.101369 0.599866 0.100622
646 1 0.145083 0.649194 0.102221
647 1 0.148339 0.599932 0.153259
648 1 0.0957231 0.648508 0.150981
649 1 0.198617 0.600257 0.0993445
650 1 0.249657 0.648813 0.0992118
651 1 0.251719 0.598522 0.145726
652 1 0.200152 0.648703 0.146738
653 1 0.302111 0.599467 0.10099
654 1 0.352998 0.646157 0.0998719
655 1 0.353705 0.598632 0.151821
656 1 0.300563 0.647463 0.14772
657 1 0.403798 0.601243 0.098221
658 1 0.450852 0.653081 0.0982596
659 1 0.453938 0.601549 0.156435
660 1 0.399302 0.65328 0.151059
661 1 0.499138 0.597748 0.103843
662 1 0.548674 0.648256 0.103196
663 1 0.550348 0.600156 0.152066
664 1 0.499677 0.653267 0.151492
665 1 0.59918 0.600717 0.0997741
666 1 0.651518 0.650639 0.104779
667 1 0.652865 0.602112 0.149691
668 1 0.601148 0.650652 0.151361
669 1 0.70263 0.601058 0.102813
670 1 0.747806 0.650111 0.101038
671 1 0.749552 0.600868 0.150319
672 1 0.700618 0.647843 0.152384
673 1 0.79739 0.598683 0.100365
674 1 0.848886 0.6504 0.0950194
675 1 0.849566 0.602471 0.150975
676 1 0.803268 0.651525 0.148471
677 1 0.900666 0.602271 0.100196
678 1 0.951671 0.65346 0.0962194
679 1 0.951649 0.600767 0.15632
680 1 0.903408 0.648757 0.14647
681 1 0.998443 0.702098 0.0991981
682 1 0.0483946 0.751263 0.102356
683 1 0.0488299 0.698265 0.149913
684 1 0.998506 0.746924 0.151481
685 1 0.100302 0.70595 0.101274
686 1 0.152281 0.750051 0.0987157
687 1 0.152467 0.702316 0.154596
688 1 0.100431 0.752617 0.149371
689 1 0.198878 0.697362 0.100512
690 1 0.250275 0.748885 0.100046
691 1 0.251667 0.69694 0.147993
692 1 0.202178 0.752491 0.149435
693 1 0.301486 0.69966 0.0984986
694 1 0.351929 0.749266 0.0993519
695 1 0.351133 0.698405 0.148185
696 1 0.299647 0.748806 0.149047
697 1 0.402156 0.702075 0.0991617
698 1 0.450604 0.749108 0.102615
699 1 0.448433 0.700273 0.150139
700 1 0.397787 0.747983 0.149142
701 1 0.500917 0.701768 0.103318
702 1 0.549892 0.752143 0.0986842
703 1 0.552015 0.698874 0.152641
704 1 0.499286 0.748885 0.152515
705 1 0.597886 0.701152 0.0983321
706 1 0.649822 0.749422 0.1004
707 1 0.65306 0.700624 0.152345
708 1 0.60129 0.750265 0.150475
709 1 0.699639 0.700774 0.0999306
710 1 0.74947 0.748465 0.100475
711 1 0.74948 0.699876 0.147851
712 1 0.698453 0.749976 0.148258
713 1 0.799507 0.696963 0.097424
714 1 0.851523 0.748713 0.0975559
715 1 0.853724 0.698084 0.146513
716 1 0.802972 0.747504 0.149552
717 1 0.899813 0.701791 0.0977716
718 1 0.946019 0.751819 0.0979865
719 1 0.952885 0.698926 0.151835
720 1 0.900259 0.750932 0.151616
721 1 0.995503 0.798327 0.100752
722 1 0.0525697 0.849235 0.0990466
723 1 0.0543639 0.801144 0.150514
724 1 0.00100719 0.849471 0.149547
725 1 0.0990322 0.798657 0.0986363
726 1 0.149452 0.851884 0.0963737
727 1 0.151346 0.799071 0.147141
728 1 0.102699 0.848608 0.1503
729 1 0.20157 0.799099 0.0990612
730 1 0.253305 0.84854 0.0989149
731 1 0.251946 0.798241 0.149307
732 1 0.201257 0.848099 0.148693
733 1 0.299334 0.798418 0.0996904
734 1 0.348358 0.850948 0.0995326
735 1 0.349614 0.800665 0.149083
736 1 0.298932 0.848636 0.151966
737 1 0.400188 0.798333 0.0998269
738 1 0.453381 0.845444 0.101723
739 1 0.451911 0.798561 0.15094
740 1 0.398637 0.850144 0.150121
741 1 0.502056 0.797018 0.100565
742 1 0.550641 0.846415 0.100718
743 1 0.552323 0.797198 0.146102
744 1 0.501607 0.846415 0.151528
745 1 0.600295 0.798873 0.0993661
746 1 0.649482 0.847815 0.100122
747 1 0.648611 0.799554 0.147949
748 1 0.599413 0.843825 0.150075
749 1 0.701029 0.797576 0.0986853
750 1 0.751701 0.844506 0.0986294
751 1 0.747284 0.802819 0.151961
752 1 0.698599 0.84689 0.149689
753 1 0.801441 0.798476 0.10171
754 1 0.850935 0.852084 0.0962366
755 1 0.848575 0.800206 0.1548
756 1 0.799107 0.848763 0.153116
757 1 0.895605 0.799782 0.102562
758 1 0.951152 0.847781 0.10238
759 1 0.951217 0.799268 0.153632
760 1 0.902015 0.851274 0.151029
761 1 0.00274625 0.897504 0.101402
762 1 0.048711 0.948773 0.101645
763 1 0.0511533 0.901368 0.151478
764 1 0.997854 0.95049 0.149972
765 1 0.100552 0.900241 0.0995463
766 1 0.147656 0.9512 0.100727
767 1 0.149914 0.898587 0.150403
768 1 0.100586 0.946944 0.150986
769 1 0.196846 0.900127 0.100736
770 1 0.248632 0.948346 0.0997304
771 1 0.24859 0.900102 0.150638
772 1 0.197166 0.945701 0.150673
773 1 0.29821 0.897473 0.100464
774 1 0.348963 0.947828 0.0998773
775 1 0.347408 0.901808 0.149813
776 1 0.2977 0.947838 0.148257
777 1 0.400429 0.900148 0.100186
778 1 0.450308 0.951406 0.101115
779 1 0.451181 0.896426 0.151783
780 1 0.399383 0.951943 0.148129
781 1 0.500243 0.896821 0.0992265
782 1 0.549754 0.949055 0.0992257
783 1 0.555131 0.896193 0.149605
784 1 0.496497 0.954387 0.153439
785 1 0.599789 0.896565 0.097742
786 1 0.651797 0.946691 0.102856
787 1 0.647948 0.892106 0.147649
788 1 0.59777 0.947089 0.148477
789 1 0.698489 0.894768 0.0998357
790 1 0.751478 0.952301 0.099295
791 1 0.752415 0.895109 0.150911
792 1 0.703245 0.94724 0.15146
793 1 0.800784 0.900905 0.0994052
794 1 0.852771 0.951549 0.0978873
795 1 0.849111 0.899081 0.14951
796 1 0.800852 0.949623 0.152056
797 1 0.900768 0.900077 0.10185
798 1 0.949001 0.949182 0.0999386
799 1 0.947304 0.89832 0.152188
800 1 0.89794 0.949444 0.151489
801 1 0.994867 0.996015 0.201759
802 1 0.0465452 0.0485612 0.203263
803 1 0.0471356 0.999424 0.251049
804 1 0.99633 0.0511075 0.250068
805 1 0.0994 0.996118 0.202488
806 1 0.152065 0.0515191 0.201166
807 1 0.150393 0.999923 0.251458
808 1 0.0983833 0.0476803 0.251764
809 1 0.197817 0.997822 0.199118
810 1 0.251731 0.0521662 0.199608
811 1 0.249768 0.00220862 0.250348
812 1 0.201798 0.0497527 0.250452
813 1 0.298999 0.000839517 0.198589
814 1 0.346546 0.0546884 0.204265
815 1 0.347215 0.997743 0.250585
816 1 0.299531 0.0496974 0.250531
817 1 0.397945 0.00206052 0.200956
818 1 0.448996 0.049117 0.201983
819 1 0.449054 0.00210566 0.252583
820 1 0.398287 0.049445 0.251372
821 1 0.49865 0.00135588 0.200452
822 1 0.552745 0.0525344 0.201114
823 1 0.555819 0.00170364 0.249525
824 1 0.502894 0.0522442 0.250204
825 1 0.600738 0.000291983 0.197243
826 1 0.65398 0.046213 0.2006
827 1 0.650238 0.999091 0.247874
828 1 0.602754 0.0528373 0.248214
829 1 0.702944 0.00346857 0.199645
830 1 0.749095 0.0517603 0.201833
831 1 0.75183 0.00309116 0.249282
832 1 0.701968 0.0509173 0.249983
833 1 0.800618 1.00039 0.200063
834 1 0.851704 0.0502563 0.200125
835 1 0.852898 0.998714 0.2506
836 1 0.802916 0.0469436 0.253541
837 1 0.901751 0.000884288 0.204701
838 1 0.948463 0.0506934 0.202985
839 1 0.948216 0.000253935 0.253149
840 1 0.898505 0.0512738 0.250499
841 1 0.000567062 0.100127 0.20156
842 1 0.0504177 0.150732 0.203089
843 1 0.0507933 0.0988562 0.251256
844 1 0.999127 0.148137 0.251179
845 1 0.0992862 0.096411 0.201002
846 1 0.151373 0.149606 0.198463
847 1 0.149767 0.100135 0.247754
848 1 0.0993411 0.148543 0.251554
849 1 0.201703 0.0969793 0.197213
850 1 0.25102 0.148861 0.201438
851 1 0.249272 0.0988985 0.25052
852 1 0.200485 0.145678 0.249258
853 1 0.298074 0.0991287 0.20234
854 1 0.346694 0.148447 0.200318
855 1 0.350273 0.102811 0.251554
856 1 0.299282 0.151985 0.24851
857 1 0.400494 0.09769 0.199719
858 1 0.452631 0.150909 0.196616
859 1 0.449564 0.0989268 0.249247
860 1 0.401335 0.147753 0.24778
861 1 0.499493 0.101608 0.197003
862 1 0.552864 0.15034 0.196332
863 1 0.549065 0.101934 0.249662
864 1 0.498547 0.150569 0.247333
865 1 0.600303 0.101621 0.197589
866 1 0.65194 0.151583 0.195356
867 1 0.652146 0.099661 0.24517
868 1 0.599558 0.149474 0.245438
869 1 0.699776 0.098475 0.19346
870 1 0.747223 0.153239 0.197303
871 1 0.751607 0.106435 0.24771
872 1 0.701563 0.152442 0.248691
873 1 0.800882 0.0986452 0.196415
874 1 0.845584 0.149717 0.200191
875 1 0.849534 0.103652 0.251472
876 1 0.799159 0.154009 0.251974
877 1 0.900936 0.101687 0.202772
878 1 0.953704 0.153422 0.198797
879 1 0.949161 0.102062 0.2515
880 1 0.898588 0.151042 0.251306
881 1 0.00516708 0.199255 0.202194
882 1 0.0488882 0.250296 0.202374
883 1 0.0481381 0.202311 0.252355
884 1 0.00162189 0.249168 0.252158
885 1 0.0982942 0.201027 0.200267
886 1 0.152293 0.245596 0.203911
887 1 0.152829 0.196539 0.250536
888 1 0.100744 0.249973 0.249061
889 1 0.20262 0.202702 0.202747