ITEM: TIMESTEP
69500
ITEM: NUMBER OF ATOMS
4000
ITEM: BOX BOUNDS pp pp pp
0.0000000000000000e+00 1.6795961913825074e+01
0.0000000000000000e+00 1.6795961913825074e+01
0.0000000000000000e+00 1.6795961913825074e+01
ITEM: ATOMS id type xs ys zs
1 1 0.739584 0.599246 0.575299
2 1 0.129683 0.79898 0.131699
3 1 0.793797 0.600032 0.354055
4 1 0.651668 0.609813 0.763162
5 1 0.712822 0.447382 0.334508
6 1 0.909403 0.705512 0.556756
7 1 0.697874 0.206563 0.92252
8 1 0.361956 0.396837 0.0696008
9 1 0.23507 0.193675 0.395402
10 1 0.0201979 0.133584 0.388151
11 1 0.404099 0.793754 0.12279
12 1 0.38337 0.768673 0.177307
13 1 0.0243089 0.194288 0.385307
14 1 0.186153 0.521686 0.0284793
15 1 0.391519 0.843016 0.0986045
16 1 0.496255 0.895946 0.456496
17 1 0.0502014 0.318217 0.672507
18 1 0.456382 0.907554 0.140079
19 1 0.537799 0.720419 0.582821
20 1 0.661069 0.36815 0.0642043
21 1 0.251757 0.838713 0.729789
22 1 0.317159 0.413135 0.315914
23 1 0.628644 0.563988 0.262941
24 1 0.608649 0.0889704 0.938012
25 1 0.876572 0.0452769 0.216834
26 1 0.819819 0.366893 0.34162
27 1 0.159811 0.853332 0.220884
28 1 0.407804 0.472369 0.929217
29 1 0.297609 0.514208 0.1913
30 1 0.159711 0.973852 0.842797
31 1 0.422305 0.835631 0.0429823
32 1 0.602947 0.993227 0.278685
33 1 0.929928 0.88694 0.386443
34 1 0.536252 0.964939 0.872458
35 1 0.969653 0.956779 0.478024
36 1 0.382944 0.236732 0.47517
37 1 0.368906 0.897512 0.0539033
38 1 0.636592 0.832497 0.978125
39 1 0.312358 0.0332901 0.153747
40 1 0.0293835 0.226959 0.450657
41 1 0.551602 0.986315 0.466266
42 1 0.816525 0.911758 0.708995
43 1 0.933988 0.501762 0.560433
44 1 0.944911 0.391453 0.210863
45 1 0.638393 0.955227 0.931685
46 1 0.946918 0.459529 0.450014
47 1 0.354227 0.488748 0.023888
48 1 0.0498287 0.421893 0.374847
49 1 0.220373 0.110481 0.692655
50 1 0.763413 0.616196 0.298245
51 1 0.518575 0.402941 0.288534
52 1 0.568179 0.295105 0.33871
53 1 0.313092 0.12373 0.362732
54 1 0.0470188 0.681543 0.906098
55 1 0.0979553 0.267074 0.459932
56 1 0.166921 0.398774 0.45173
57 1 0.215866 0.326328 0.540157
58 1 0.474649 0.505894 0.254575
59 1 0.535429 0.521585 0.547933
60 1 0.511461 0.336314 0.397057
61 1 0.921572 0.700311 0.864563
62 1 0.954847 0.539549 0.393973
63 1 0.708597 0.00666857 0.324824
64 1 0.35596 0.255408 0.223928
65 1 0.474251 0.396175 0.91267
66 1 0.488375 0.813524 0.0422937
67 1 0.0636056 0.481433 0.791438
68 1 0.869321 0.574661 0.253573
69 1 0.231848 0.760023 0.247171
70 1 0.446587 0.0457732 0.979849
71 1 0.297868 0.168403 0.251131
72 1 0.267387 0.841978 0.325174
73 1 0.454302 0.232509 0.882395
74 1 0.496684 0.695372 0.279007
75 1 0.586242 0.437664 0.881763
76 1 0.681495 0.450118 0.15509
77 1 0.289509 0.124781 0.220342
78 1 0.867631 0.675858 0.741378
79 1 0.0792889 0.911149 0.326405
80 1 0.0286398 0.0821777 0.267389
81 1 0.822934 0.134994 0.865436
82 1 0.0664967 0.569146 0.645909
83 1 0.0767413 0.963938 0.641718
84 1 0.345802 0.38535 0.999587
85 1 0.770347 0.22341 0.523796
86 1 0.741205 0.0201774 0.0881265
87 1 0.880779 0.462245 0.0952119
88 1 0.1334 0.968497 0.769685
89 1 0.251966 0.567463 0.31902
90 1 0.834389 0.0863064 0.395922
91 1 0.988821 0.190252 0.688894
92 1 0.142043 0.668986 0.129059
93 1 0.431904 0.844199 0.980359
94 1 0.185368 0.906147 0.636952
95 1 0.354255 0.879888 0.926927
96 1 0.645718 0.380529 0.173152
97 1 0.160073 0.226664 0.342413
98 1 0.334323 0.0471669 0.386753
99 1 0.112358 0.924218 0.539923
100 1 0.947737 0.00112374 0.440443
101 1 0.598158 0.0141962 0.497548
102 1 0.360087 0.00371455 0.341281
103 1 0.858877 0.729743 0.212209
104 1 0.135006 0.909329 0.969708
105 1 0.766114 0.423708 0.935789
106 1 0.150917 0.133613 0.648398
107 1 0.644345 0.748498 0.823603
108 1 0.803459 0.0902205 0.250084
109 1 0.541805 0.870388 0.564611
110 1 0.619158 0.897298 0.40447
111 1 0.336838 0.00280645 0.100346
112 1 0.704266 0.971741 0.494714
113 1 0.359026 0.301742 0.259425
114 1 0.713319 0.386908 0.891843
115 1 0.531854 0.104482 0.227957
116 1 0.174532 0.555917 0.709728
117 1 0.420751 0.386254 0.0524252
118 1 0.307916 0.206466 0.627849
119 1 0.997895 0.0347024 0.186247
120 1 0.496573 0.70535 0.0680574
121 1 0.796246 0.790746 0.160114
122 1 0.124529 0.616008 0.198329
123 1 0.965768 0.664339 0.902017
124 1 0.468344 0.432721 0.720537
125 1 0.43859 0.518998 0.446544
126 1 0.145872 0.495969 0.348884
127 1 0.143633 0.766967 0.825532
128 1 0.887297 0.74337 0.807146
129 1 0.935186 0.397209 0.736617
130 1 0.705495 0.548387 0.400658
131 1 0.0750915 0.661453 0.136831
132 1 0.329097 0.71528 0.17854
133 1 0.305622 0.798519 0.0256872
134 1 0.838315 0.431857 0.906447
135 1 0.556663 0.407517 0.181009
136 1 0.440177 0.895944 0.962677
137 1 0.413482 0.0787196 0.187986
138 1 0.230175 0.722674 0.4513
139 1 0.790078 0.588677 0.0999229
140 1 0.598875 0.931215 0.6037
141 1 0.947455 0.432899 0.681317
142 1 0.707337 0.168876 0.21397
143 1 0.200899 0.159 0.656744
144 1 0.524991 0.476787 0.503765
145 1 0.930834 0.368373 0.338444
146 1 0.656024 0.880832 0.202333
147 1 0.887981 0.212075 0.00408229
148 1 0.320311 0.357839 0.149478
149 1 0.735219 0.557998 0.136854
150 1 0.746152 0.496623 0.314885
151 1 0.751942 0.877259 0.208471
152 1 0.604551 0.815685 0.913031
153 1 0.543921 0.412008 0.684824
154 1 0.207251 0.333251 0.0711158
155 1 0.621617 0.0479354 0.271977
156 1 0.935686 0.975522 0.542705
157 1 0.632954 0.999258 0.0301145
158 1 0.986074 0.297085 0.654505
159 1 0.43213 0.930212 0.213759
160 1 0.19229 0.0440622 0.0531446
161 1 0.886538 0.386143 0.227049
162 1 0.907872 0.509883 0.978578
163 1 0.100788 0.151848 0.145453
164 1 0.800281 0.71153 0.704627
165 1 0.859573 0.560425 0.0823427
166 1 0.639649 0.0484347 0.199218
167 1 0.90874 0.0218902 0.257212
168 1 0.996167 0.643942 0.67343
169 1 0.00319225 0.735654 0.0568812
170 1 0.122085 0.414835 0.685669
171 1 0.334465 0.365921 0.255937
172 1 0.12172 0.487162 0.404648
173 1 0.983987 0.719289 0.883868
174 1 0.942669 0.524205 0.13683
175 1 0.309584 0.424955 0.255757
176 1 0.0846693 0.856419 0.628024
177 1 0.939079 0.461443 0.905969
178 1 0.739215 0.840988 0.293494
179 1 0.395742 0.611659 0.851082
180 1 0.847683 0.787851 0.281071
181 1 0.0424164 0.599149 0.347151
182 1 0.548937 0.460024 0.610985
183 1 0.127467 0.176935 0.345758
184 1 0.638969 0.577861 0.972291
185 1 0.0773647 0.864724 0.379533
186 1 0.977416 0.328066 0.419623
187 1 0.453289 0.443242 0.0416811
188 1 0.0868579 0.402399 0.817685
189 1 0.786576 0.676127 0.224797
190 1 0.355567 0.590617 0.896908
191 1 0.466732 0.129508 0.756919
192 1 0.909117 0.661078 0.29149
193 1 0.601512 0.963961 0.992802
194 1 0.898729 0.861637 0.959927
195 1 0.412432 0.235017 0.181763
196 1 0.651159 0.637267 0.259345
197 1 0.554507 0.207932 0.295041
198 1 0.248446 0.633328 0.570004
199 1 0.341261 0.779447 0.768475
200 1 0.786538 0.910477 0.44475
201 1 0.244624 0.379718 0.927487
202 1 0.888636 0.831355 0.0751905
203 1 0.203579 0.574748 0.0306292
204 1 0.946994 0.299729 0.949972
205 1 0.521611 0.357367 0.693573
206 1 0.483989 0.50829 0.0639472
207 1 0.00935864 0.977701 0.156929
208 1 0.289613 0.658221 0.907817
209 1 0.997863 0.476712 0.321101
210 1 0.503398 0.734566 0.218189
211 1 0.018312 0.333962 0.624329
212 1 0.898333 0.0462322 0.61362
213 1 0.478111 0.886095 0.919262
214 1 0.0329629 0.907733 0.784332
215 1 0.701094 0.148491 0.00271497
216 1 0.937818 0.798845 0.253333
217 1 0.122298 0.330384 0.362587
218 1 0.468289 0.195486 0.143415
219 1 0.442944 0.722769 0.257888
220 1 0.48074 0.0398704 0.612717
221 1 0.378816 0.834015 0.814612
222 1 0.176799 0.655714 0.651399
223 1 0.744918 0.559872 0.308426
224 1 0.437667 0.774151 0.863111
225 1 0.447588 0.95337 0.0988613
226 1 0.136995 0.0630311 0.0529653
227 1 0.499111 0.0431583 0.149862
228 1 0.203945 0.41213 0.949615
229 1 0.289344 0.213165 0.837322
230 1 0.184092 0.985896 0.42387
231 1 0.80416 0.455262 0.0483517
232 1 0.821447 0.0723253 0.324134
233 1 0.0853983 0.540589 0.0217542
234 1 0.995214 0.999077 0.400558
235 1 0.853121 0.0983893 0.0512994
236 1 0.734256 0.303267 0.2187
237 1 0.647972 0.276055 0.625659
238 1 0.441847 0.794983 0.927421
239 1 0.503701 0.428266 0.973448
240 1 0.797728 0.505772 0.00583208
241 1 0.76508 0.767808 0.0368129
242 1 0.491097 0.643723 0.787513
243 1 0.724632 0.115726 0.646625
244 1 0.32319 0.858677 0.299701
245 1 0.853518 0.842939 0.794735
246 1 0.108383 0.781294 0.877863
247 1 0.125713 0.00766498 0.0186049
248 1 0.569154 0.64612 0.00696934
249 1 0.286169 0.0687324 0.192174
250 1 0.865426 0.78569 0.0346017
251 1 0.371846 0.714827 0.746555
252 1 0.991654 0.913193 0.300767
253 1 0.447029 0.962644 0.56313
254 1 0.25184 0.509527 0.809543
255 1 0.283466 0.192817 0.310486
256 1 0.263981 0.360399 0.296683
257 1 0.260732 0.557165 0.213824
258 1 0.5752 0.47469 0.665589
259 1 0.338838 0.261875 0.98094
260 1 0.256767 0.519702 0.34843
261 1 0.263308 0.49777 0.233429
262 1 0.536861 0.505197 0.0924688
263 1 0.315239 0.596401 0.416214
264 1 0.300891 0.604297 0.918791
265 1 0.498751 0.510504 0.141448
266 1 0.312608 0.54579 0.633576
267 1 0.113934 0.358374 0.00102099
268 1 0.683201 0.0633829 0.421255
269 1 0.169788 0.0911916 0.190305
270 1 0.455511 0.772442 0.159684
271 1 0.543416 0.0889564 0.525407
272 1 0.319936 0.169584 0.0686147
273 1 0.509771 0.0921223 0.729655
274 1 0.748491 0.354547 0.933236
275 1 0.359612 0.99864 0.43448
276 1 0.0327838 0.793465 0.439265
277 1 0.763996 0.391604 0.161596
278 1 0.66231 0.567952 0.802998
279 1 0.533748 0.228193 0.393984
280 1 0.185515 0.960359 0.997579
281 1 0.794067 0.983681 0.54846
282 1 0.188054 0.714469 0.841618
283 1 0.4455 0.906421 0.862532
284 1 0.492087 0.679213 0.542258
285 1 0.615252 0.605685 0.591982
286 1 0.91617 0.812022 0.824533
287 1 0.213161 0.15216 0.437627
288 1 0.160038 0.480993 0.703473
289 1 0.698137 0.719701 0.336147
290 1 0.755369 0.747587 0.100449
291 1 0.164698 0.815756 0.507385
292 1 0.658858 0.0905273 0.0271071
293 1 0.284149 0.775812 0.323948
294 1 0.809179 0.631485 0.992399
295 1 0.249653 0.430639 0.2257
296 1 0.999396 0.565015 0.799364
297 1 0.814261 0.770678 0.883688
298 1 0.322777 0.945387 0.331224
299 1 0.140229 0.0612956 0.27468
300 1 0.85138 0.613454 0.49487
301 1 0.22431 0.269112 0.508613
302 1 0.511225 0.396008 0.0910116
303 1 0.376104 0.878287 0.329758
304 1 0.00575223 0.460299 0.771068
305 1 0.761705 0.76822 0.916738
306 1 0.611511 0.453108 0.704144
307 1 0.341677 0.540108 0.128419
308 1 0.450352 0.888055 0.684666
309 1 0.517128 0.395516 0.592046
310 1 0.630665 0.0844979 0.760017
311 1 0.95481 0.644062 0.187992
312 1 0.309799 0.203855 0.363544
313 1 0.343416 0.503752 0.961243
314 1 0.965884 0.707841 0.614073
315 1 0.437477 0.968004 0.153935
316 1 0.677975 0.122045 0.692883
317 1 0.685176 0.805876 0.706329
318 1 0.436454 0.648288 0.0227985
319 1 0.39088 0.568017 0.74776
320 1 0.649529 0.559311 0.0343072
321 1 0.173705 0.979023 0.517757
322 1 0.83668 0.808035 0.420509
323 1 0.391584 0.381419 0.563067
324 1 0.0624692 0.797605 0.387317
325 1 0.11881 0.857805 0.324061
326 1 0.347202 0.571617 0.481057
327 1 0.278944 0.858407 0.500736
328 1 0.936374 0.75763 0.381435
329 1 0.394268 0.653436 0.349637
330 1 0.894541 0.348117 0.604892
331 1 0.201667 0.479119 0.37555
332 1 0.433407 0.0918987 0.783322
333 1 0.563485 0.59884 0.173301
334 1 0.986026 0.793733 0.362476
335 1 0.823635 0.162604 0.485119
336 1 0.556838 0.809357 0.0786807
337 1 0.678971 0.612166 0.159677
338 1 0.374481 0.858054 0.00979828
339 1 0.334771 0.420396 0.865551
340 1 0.929184 0.91737 0.441923
341 1 0.246856 0.661211 0.331141
342 1 0.559815 0.0564121 0.197836
343 1 0.77577 0.479783 0.433082
344 1 0.508984 0.153059 0.128857
345 1 0.0233303 0.976316 0.0606239
346 1 0.443328 0.770244 0.543678
347 1 0.394148 0.204717 0.955316
348 1 0.769262 0.158117 0.0173155
349 1 0.503814 0.895391 0.341999
350 1 0.922039 0.758035 0.171642
351 1 0.594043 0.950513 0.399495
352 1 0.724233 0.822333 0.772344
353 1 0.216949 0.586848 0.667039
354 1 0.540158 0.846748 0.0337634
355 1 0.973282 0.854683 0.0363071
356 1 0.860703 0.484726 0.703505
357 1 0.517625 0.200213 0.338366
358 1 0.502331 0.401139 0.345437
359 1 0.0484654 0.353252 0.973091
360 1 0.0782758 0.249383 0.407798
361 1 0.16676 0.255023 0.0346357
362 1 0.806116 0.307906 0.923127
363 1 0.762525 0.868003 0.769188
364 1 0.651866 0.135488 0.0639233
365 1 0.298952 0.903717 0.636981
366 1 0.202006 0.61695 0.799
367 1 0.91239 0.0388315 0.706028
368 1 0.916207 0.293031 0.573962
369 1 0.593756 0.943156 0.776563
370 1 0.886596 0.593885 0.82359
371 1 0.331823 0.72047 0.0559134
372 1 0.704539 0.314201 0.10806
373 1 0.357455 0.771339 0.449286
374 1 0.641248 0.413735 0.977651
375 1 0.273706 0.564766 0.953281
376 1 0.253306 0.679864 0.400236
377 1 0.134435 0.705083 0.812579
378 1 0.185275 0.174287 0.303045
379 1 0.174456 0.262423 0.440641
380 1 0.941414 0.768427 0.875151
381 1 0.00947153 0.981046 0.841014
382 1 0.530746 0.909902 0.0365444
383 1 0.170658 0.0555955 0.918615
384 1 0.950061 0.156771 0.0540858
385 1 0.37986 0.0797785 0.991788
386 1 0.218986 0.431943 0.114853
387 1 0.0634923 0.133084 0.919888
388 1 0.482785 0.118973 0.531494
389 1 0.103069 0.500272 0.706051
390 1 0.887566 0.410059 0.0220515
391 1 0.0555545 0.0436099 0.169201
392 1 0.0986322 0.171893 0.632387
393 1 0.397624 0.593744 0.514099
394 1 0.386861 0.284802 0.670424
395 1 0.213138 0.375971 0.246423
396 1 0.657304 0.0718173 0.086928
397 1 0.0524614 0.415873 0.700698
398 1 0.14539 0.344855 0.236601
399 1 0.424392 0.138183 0.351818
400 1 0.720736 0.0624335 0.13425
401 1 0.872623 0.230324 0.862689
402 1 0.242807 0.864546 0.635094
403 1 0.862909 0.889262 0.354896
404 1 0.685833 0.339619 0.390548
405 1 0.633065 0.143252 0.261714
406 1 0.507076 0.0372231 0.85543
407 1 0.315404 0.818353 0.518457
408 1 0.651918 0.896747 0.576862
409 1 0.932623 0.0452777 0.175277
410 1 0.0930024 0.0341983 0.346038
411 1 0.0166384 0.861654 0.321013
412 1 0.525557 0.324574 0.597557
413 1 0.529795 0.241017 0.987058
414 1 0.996148 0.883366 0.977302
415 1 0.726572 0.259787 0.852321
416 1 0.136108 0.124072 0.25198
417 1 0.122578 0.506215 0.142097
418 1 0.256187 0.455293 0.162051
419 1 0.712461 0.895917 0.782079
420 1 0.37548 0.462197 0.674607
421 1 0.477438 0.415523 0.209097
422 1 0.532 0.93523 0.436494
423 1 0.58821 0.273833 0.0603279
424 1 0.650411 0.101126 0.229274
425 1 0.045876 0.897718 0.482585
426 1 0.507186 0.0940816 0.433487
427 1 0.669066 0.65575 0.351634
428 1 0.160733 0.865453 0.93429
429 1 0.868305 0.88082 0.200368
430 1 0.528365 0.261218 0.211996
431 1 0.887192 0.942815 0.155074
432 1 0.159079 0.264807 0.59121
433 1 0.0505627 0.0670917 0.521396
434 1 0.82556 0.944703 0.494714
435 1 0.941495 0.454499 0.296063
436 1 0.0358723 0.315352 0.901378
437 1 0.385891 0.122971 0.466864
438 1 0.324653 0.560268 0.754122
439 1 0.426765 0.496382 0.863479
440 1 0.0860258 0.657737 0.228998
441 1 0.994581 0.00129884 0.336677
442 1 0.109794 0.91248 0.0915068
443 1 0.745254 0.150105 0.397824
444 1 0.310996 0.126656 0.572467
445 1 0.986449 0.182333 0.839074
446 1 0.863603 0.97078 0.1155
447 1 0.566849 0.0596644 0.728743
448 1 0.902956 0.243317 0.663239
449 1 0.0315597 0.317575 0.193226
450 1 0.29025 0.60915 0.768165
451 1 0.908631 0.438639 0.958518
452 1 0.687094 0.264583 0.237882
453 1 0.00127724 0.423818 0.0379548
454 1 0.165683 0.165076 0.938937
455 1 0.201829 0.622975 0.23033
456 1 0.676239 0.878855 0.820148
457 1 0.920831 0.130605 0.515951
458 1 0.417629 0.486493 0.567775
459 1 0.718871 0.90096 0.0319049
460 1 0.00299677 0.0966333 0.859114
461 1 0.413777 0.983177 0.480278
462 1 0.138597 0.12401 0.00775682
463 1 0.188327 0.38766 0.396306
464 1 0.0631639 0.5289 0.945271
465 1 0.851604 0.209929 0.648267
466 1 0.862155 0.112548 0.332764
467 1 0.875011 0.979399 0.797319
468 1 0.524976 0.141528 0.635631
469 1 0.046616 0.11643 0.607229
470 1 0.0472076 0.918925 0.71889
471 1 0.796667 0.0616072 0.155471
472 1 0.664083 0.496499 0.126255
473 1 0.974169 0.201236 0.0269707
474 1 0.300936 0.902254 0.735988
475 1 0.518963 0.706415 0.350281
476 1 0.650671 0.0270929 0.922331
477 1 0.626933 0.927147 0.247475
478 1 0.51081 0.144812 0.293892
479 1 0.739455 0.175339 0.73741
480 1 0.425125 0.305518 0.980517
481 1 0.237227 0.229895 0.938507
482 1 0.919543 0.190207 0.841145
483 1 0.238356 0.800565 0.0915913
484 1 0.338701 0.912482 0.280204
485 1 0.790761 0.386977 0.669974
486 1 0.891305 0.400076 0.0916949
487 1 0.983844 0.766076 0.150623
488 1 0.0992533 0.0766074 0.939676
489 1 0.705381 0.0728306 0.92891
490 1 0.264878 0.413747 0.799372
491 1 0.623341 0.757803 0.613231
492 1 0.334846 0.0990635 0.241016
493 1 0.214746 0.85047 0.53091
494 1 0.321362 0.0150113 0.751829
495 1 0.406163 0.054752 0.63321
496 1 0.357594 0.662195 0.916813
497 1 0.182845 0.750173 0.108122
498 1 0.923843 0.0624839 0.329863
499 1 0.953489 0.993761 0.208988
500 1 0.417715 0.674375 0.706938
501 1 0.3303 0.0575203 0.310483
502 1 0.298068 0.0128638 0.0531847
503 1 0.337302 0.611722 0.0419214
504 1 0.855637 0.810761 0.118586
505 1 0.763671 0.418636 0.436874
506 1 0.449494 0.16702 0.45209
507 1 0.255532 0.55597 0.633373
508 1 0.604717 0.92977 0.149231
509 1 0.465922 0.280649 0.203202
510 1 0.401231 0.899824 0.274508
511 1 0.191333 0.826168 0.976695
512 1 0.967184 0.444879 0.230773
513 1 0.576971 0.349852 0.464523
514 1 0.466639 0.131422 0.398902
515 1 0.418353 0.845487 0.253978
516 1 0.74738 0.443732 0.131883
517 1 0.549087 0.375872 0.822415
518 1 0.524844 0.650686 0.698046
519 1 0.365723 0.515724 0.268906
520 1 0.448822 0.740731 0.667203
521 1 0.601681 0.45683 0.0153679
522 1 0.919921 0.307697 0.322563
523 1 0.887376 0.170646 0.162358
524 1 0.951433 0.134492 0.121613
525 1 0.794235 0.772295 0.731569
526 1 0.360893 0.444886 0.968452
527 1 0.180356 0.482347 0.975513
528 1 0.159993 0.418859 0.73958
529 1 0.882075 0.324109 0.422944
530 1 0.708041 0.477921 0.844197
531 1 0.0723065 0.360105 0.348502
532 1 0.11832 0.224038 0.615756
533 1 0.747652 0.549442 0.0773735
534 1 0.426592 0.919289 0.384804
535 1 0.166209 0.326843 0.14777
536 1 0.435079 0.0883537 0.506427
537 1 0.323441 0.260775 0.828234
538 1 0.304318 0.665096 0.0236884
539 1 0.360523 0.686977 0.808151
540 1 0.588633 0.684342 0.879778
541 1 0.561931 0.458106 0.821231
542 1 0.44064 0.676176 0.967944
543 1 0.562749 0.187182 0.590662
544 1 0.785622 0.442283 0.224764
545 1 0.397604 0.430623 0.181134
546 1 0.300423 0.527588 0.40964
547 1 0.52086 0.614244 0.829159
548 1 0.0393826 0.141764 0.0911206
549 1 0.748321 0.674061 0.83309
550 1 0.947977 0.735878 0.441441
551 1 0.976188 0.225814 0.233346
552 1 0.990859 0.280216 0.22091
553 1 0.974148 0.415966 0.150323
554 1 0.79141 0.598383 0.63393
555 1 0.81751 0.560439 0.196251
556 1 0.998572 0.887949 0.908522
557 1 0.176291 0.323901 0.586891
558 1 0.941749 0.139097 0.819318
559 1 0.835692 0.994164 0.928933
560 1 0.951888 0.142524 0.589718
561 1 0.85918 0.961778 0.698944
562 1 0.878126 0.276007 0.278325
563 1 0.0404707 0.512742 0.0790987
564 1 0.324111 0.724172 0.25874
565 1 0.90847 0.692323 0.195845
566 1 0.564158 0.611065 0.539874
567 1 0.314343 0.166242 0.485307
568 1 0.834933 0.671802 0.681089
569 1 0.833728 0.0275738 0.6919
570 1 0.0090566 0.481746 0.876382
571 1 0.151447 0.931334 0.0457687
572 1 0.273707 0.966427 0.875839
573 1 0.135661 0.570117 0.237921
574 1 0.439124 0.330194 0.658312
575 1 0.111704 0.609173 0.433309
576 1 0.0145961 0.999599 0.972551
577 1 0.0617624 0.271131 0.14696
578 1 0.184522 0.310444 0.777528
579 1 0.145631 0.38007 0.164965
580 1 0.790804 0.434892 0.870258
581 1 0.240114 0.579198 0.842443
582 1 0.625093 0.230772 0.921704
583 1 0.279354 0.124225 0.0836174
584 1 0.996895 0.492277 0.160606
585 1 0.342668 0.535827 0.692473
586 1 0.97535 0.313705 0.878235
587 1 0.202911 0.945369 0.462343
588 1 0.884765 0.000671558 0.320299
589 1 0.0542406 0.513418 0.62813
590 1 0.100212 0.267105 0.0407294
591 1 0.596498 0.112881 0.0627808
592 1 0.665464 0.639375 0.999568
593 1 0.567513 0.285275 0.68182
594 1 0.95974 0.204718 0.371132
595 1 0.245861 0.622646 0.921927
596 1 0.906816 0.178713 0.652394
597 1 0.88993 0.844929 0.871629
598 1 0.334258 0.583411 0.185572
599 1 0.888098 0.933708 0.0768493
600 1 0.641066 0.704121 0.580614
601 1 0.902179 0.180254 0.216048
602 1 0.493996 0.977402 0.642054
603 1 0.275678 0.97735 0.774815
604 1 0.545721 0.726325 0.903406
605 1 0.0183601 0.0143379 0.53013
606 1 0.24718 0.26073 0.0956587
607 1 0.835872 0.607375 0.88632
608 1 0.262906 0.272709 0.215895
609 1 0.2294 0.854976 0.930805
610 1 0.0570385 0.37793 0.203003
611 1 0.715435 0.782123 0.362777
612 1 0.474561 0.62732 0.137995
613 1 0.321739 0.90137 0.476599
614 1 0.156477 0.385488 0.105252
615 1 0.696538 0.860241 0.534572
616 1 0.153457 0.515397 0.757421
617 1 0.351897 0.501235 0.75001
618 1 0.286264 0.386008 0.645943
619 1 0.169164 0.517437 0.275886
620 1 0.122224 0.773828 0.36463
621 1 0.837948 0.427912 0.339405
622 1 0.339888 0.387307 0.515907
623 1 0.799093 0.326094 0.177605
624 1 0.425304 0.290522 0.61786
625 1 0.188254 0.696231 0.410294
626 1 0.466066 0.456314 0.90646
627 1 0.852352 0.411152 0.81383
628 1 0.0668624 0.515133 0.135501
629 1 0.853675 0.0415516 0.356866
630 1 0.552456 0.887633 0.399116
631 1 0.713685 0.767682 0.221822
632 1 0.727723 0.824963 0.93049
633 1 0.961871 0.156609 0.485465
634 1 0.119478 0.341001 0.306032
635 1 0.894487 0.553281 0.313843
636 1 0.697893 0.72208 0.172943
637 1 0.77739 0.122851 0.704101
638 1 0.693683 0.945641 0.231095
639 1 0.720224 0.961199 0.776382
640 1 0.333725 0.0817038 0.445904
641 1 0.371903 0.555134 0.836522
642 1 0.841169 0.559799 0.514799
643 1 0.653279 0.51852 0.205604
644 1 0.939225 0.459086 0.122217
645 1 0.138136 0.760993 0.575244
646 1 0.623136 0.561993 0.137286
647 1 0.663695 0.197145 0.264383
648 1 0.633753 0.625364 0.537179
649 1 0.0856638 0.890251 0.928685
650 1 0.0255058 0.418224 0.965333
651 1 0.171928 0.897017 0.108662
652 1 0.590751 0.848977 0.262426
653 1 0.659454 0.655496 0.201829
654 1 0.960135 0.982673 0.0370667
655 1 0.422969 0.667906 0.224991
656 1 0.449022 0.643068 0.834084
657 1 0.273452 0.931176 0.188272
658 1 0.0417766 0.670051 0.737079
659 1 0.301686 0.323755 0.853375
660 1 0.474989 0.670416 0.898411
661 1 0.168762 0.689362 0.910449
662 1 0.112792 0.549713 0.408138
663 1 0.439271 0.788504 0.230895
664 1 0.102683 0.722233 0.930153
665 1 0.903898 0.593418 0.404036
666 1 0.0689702 0.944677 0.254102
667 1 0.392415 0.32936 0.547902
668 1 0.253421 0.32422 0.17849
669 1 0.820531 0.259539 0.0757233
670 1 0.769713 0.45121 0.48534
671 1 0.599361 0.512558 0.828279
672 1 0.728917 0.960734 0.0600253
673 1 0.729448 0.714111 0.553992
674 1 0.170282 0.673751 0.0265132
675 1 0.329317 0.0923151 0.140954
676 1 0.360743 0.38501 0.351658
677 1 0.664287 0.518197 0.869857
678 1 0.913345 0.732009 0.740931
679 1 0.154756 0.0615009 0.331391
680 1 0.913558 0.905543 0.325389
681 1 0.432408 0.808645 0.817589
682 1 0.914307 0.980735 0.670937
683 1 0.381224 0.846943 0.709303
684 1 0.763347 0.196782 0.441339
685 1 0.928422 0.784749 0.962816
686 1 0.118517 0.512502 0.30139
687 1 0.94354 0.561034 0.56953
688 1 0.956088 0.240916 0.986639
689 1 0.264108 0.379042 0.8551
690 1 0.266482 0.158242 0.736664
691 1 0.876836 0.0552983 0.532967
692 1 0.575882 0.678891 0.700237
693 1 0.49972 0.710181 0.960683
694 1 0.263124 0.983038 0.240122
695 1 0.954547 0.260585 0.811923
696 1 0.369583 0.872788 0.4861
697 1 0.763795 0.267106 0.263354
698 1 0.0424273 0.550053 0.763257
699 1 0.661727 0.869849 0.0173646
700 1 0.73256 0.91362 0.32353
701 1 0.429706 0.685989 0.506582
702 1 0.0963707 0.949293 0.916345
703 1 0.292979 0.651626 0.438667
704 1 0.767025 0.637018 0.950705
705 1 0.899512 0.898665 0.263347
706 1 0.822883 0.432437 0.51269
707 1 0.925144 0.295556 0.443302
708 1 0.700082 0.136124 0.851231
709 1 0.054195 0.205592 0.130817
710 1 0.825384 0.862783 0.141049
711 1 0.0404855 0.105588 0.982988
712 1 0.00495865 0.794216 0.699083
713 1 0.402603 0.535076 0.508739
714 1 0.885585 0.55222 0.930305
715 1 0.467609 0.630814 0.596791
716 1 0.303515 0.689098 0.829999
717 1 0.390777 0.937679 0.559786
718 1 0.234681 0.993595 0.712165
719 1 0.951476 0.204119 0.578249
720 1 0.905654 0.823017 0.671239
721 1 0.982422 0.865103 0.571734
722 1 0.316455 0.863087 0.0313873
723 1 0.537218 0.776508 0.17279
724 1 0.601209 0.684679 0.48268
725 1 0.638913 0.944617 0.101633
726 1 0.268106 0.179471 0.671228
727 1 0.0718988 0.0883615 0.370306
728 1 0.715746 0.535913 0.197261
729 1 0.709021 0.203257 0.59148
730 1 0.450054 0.481261 0.690841
731 1 0.285591 0.673948 0.203989
732 1 0.908367 0.630135 0.227635
733 1 0.4772 0.681079 0.424177
734 1 0.957071 0.840194 0.727203
735 1 0.941149 0.209053 0.127185
736 1 0.352117 0.824079 0.151566
737 1 0.240407 0.674127 0.863522
738 1 0.396125 0.876566 0.654328
739 1 0.54295 0.609346 0.0476073
740 1 0.176963 0.747497 0.0144212
741 1 0.83645 0.430179 0.722912
742 1 0.623136 0.347509 0.349072
743 1 0.0458338 0.300934 0.390048
744 1 0.563944 0.233745 0.640765
745 1 0.580254 0.828736 0.545333
746 1 0.710135 0.158628 0.137965
747 1 0.102539 0.404676 0.402888
748 1 0.0620756 0.498928 0.558174
749 1 0.560674 0.32561 0.954928
750 1 0.0956661 0.419082 0.333678
751 1 0.979597 0.800826 0.826061
752 1 0.967649 0.339424 0.230694
753 1 0.406015 0.00915072 0.302656
754 1 0.983914 0.670542 0.738546
755 1 0.873787 0.371339 0.373622
756 1 0.202199 0.448163 0.473098
757 1 0.652432 0.901403 0.460287
758 1 0.795364 0.965516 0.722437
759 1 0.356019 0.109524 0.0799292
760 1 0.84841 0.189378 0.816171
761 1 0.788521 0.59374 0.730408
762 1 0.0118309 0.240685 0.351657
763 1 0.186546 0.435109 0.0141913
764 1 0.373939 0.24501 0.288904
765 1 0.87483 0.0872158 0.926935
766 1 0.096143 0.150379 0.0620363
767 1 0.59364 0.500349 0.120542
768 1 0.0588003 0.857314 0.438372
769 1 0.890277 0.00312387 0.846315
770 1 0.96135 0.340535 0.611707
771 1 0.732818 0.984681 0.00383374
772 1 0.349806 0.185434 0.584733
773 1 0.536863 0.578439 0.439241
774 1 0.783426 0.572449 0.0172042
775 1 0.0939364 0.977021 0.490994
776 1 0.42548 0.842747 0.471727
777 1 0.713607 0.00483917 0.821354
778 1 0.555998 0.687363 0.945642
779 1 0.343186 0.661911 0.314442
780 1 0.648 0.775986 0.257211
781 1 0.496106 0.567866 0.0188007
782 1 0.530987 0.206492 0.53153
783 1 0.736359 0.176127 0.547484
784 1 0.0442021 0.755714 0.919861
785 1 0.667828 0.556664 0.351168
786 1 0.744366 0.20039 0.161218
787 1 0.738426 0.168564 0.489606
788 1 0.523819 0.000338558 0.1854
789 1 0.580517 0.230911 0.350608
790 1 0.466446 0.296683 0.31187
791 1 0.0752384 0.125882 0.415188
792 1 0.139245 0.951049 0.661182
793 1 0.710996 0.10469 0.229434
794 1 0.501409 0.839793 0.938868
795 1 0.206887 0.770936 0.477841
796 1 0.647784 0.69441 0.798166
797 1 0.977071 0.784514 0.21344
798 1 0.00630066 0.701876 0.696355
799 1 0.40028 0.870567 0.14686
800 1 0.565533 0.426636 0.118467
801 1 0.572383 0.872467 0.641992
802 1 0.123089 0.857873 0.447154
803 1 0.165679 0.123073 0.143958
804 1 0.28023 0.370439 0.0975045
805 1 0.633679 0.312895 0.951402
806 1 0.29381 0.409259 0.584712
807 1 0.0556549 0.225802 0.602865
808 1 0.283226 0.373279 0.017404
809 1 0.489558 0.386982 0.0399934
810 1 0.326406 0.905454 0.170696
811 1 0.0564331 0.298212 0.554046
812 1 0.226096 0.996456 0.647802
813 1 0.355786 0.953201 0.605235
814 1 0.37812 0.550139 0.948388
815 1 0.3362 0.253552 0.401543
816 1 0.147157 0.00585197 0.3032
817 1 0.758077 0.955354 0.19764
818 1 0.361252 0.220331 0.0826274
819 1 0.441598 0.880401 0.563766
820 1 0.113196 0.758883 0.226671
821 1 0.760455 0.0782425 0.392493
822 1 0.106344 0.19817 0.703794
823 1 0.557521 0.0548277 0.311751
824 1 0.222735 0.378498 0.00938553
825 1 0.861229 0.794967 0.34539
826 1 0.859185 0.709768 0.874486
827 1 0.197157 0.55305 0.221584
828 1 0.541905 0.781444 0.485952
829 1 0.83673 0.106655 0.553892
830 1 0.895376 0.0101811 0.929486
831 1 0.594425 0.401225 0.0520259
832 1 0.208717 0.973387 0.208558
833 1 0.556268 0.998497 0.321344
834 1 0.366393 0.341632 0.684717
835 1 0.933114 0.4153 0.81686
836 1 0.797785 0.657903 0.491838
837 1 0.774094 0.885489 0.0207681
838 1 0.867058 0.304404 0.663901
839 1 0.0941669 0.805047 0.733071
840 1 0.769297 0.966498 0.337079
841 1 0.317989 0.941396 0.90685
842 1 0.289018 0.154327 0.840021
843 1 0.201936 0.00564792 0.356334
844 1 0.138218 0.690157 0.972635
845 1 0.397161 0.138057 0.235487
846 1 0.317639 0.754514 0.652934
847 1 0.557501 0.764937 0.743035
848 1 0.896613 0.42991 0.26497
849 1 0.23204 0.92481 0.591585
850 1 0.291402 0.266017 0.517423
851 1 0.562608 0.0148326 0.840478
852 1 0.697098 0.787536 0.084745
853 1 0.987201 0.787004 0.00538764
854 1 0.71579 0.229722 0.2773
855 1 0.939612 0.0766373 0.123952
856 1 0.14921 0.233867 0.141321
857 1 0.244525 0.356061 0.406048
858 1 0.0170117 0.249499 0.0461155
859 1 0.259754 0.976858 0.596908
860 1 0.606177 0.380742 0.505932
861 1 0.853358 0.0405931 0.155707
862 1 0.594691 0.508051 0.516177
863 1 0.808047 0.730091 0.468376
864 1 0.363897 0.218363 0.696455
865 1 0.607826 0.332566 0.175433
866 1 0.170114 0.955343 0.608229
867 1 0.759946 0.261231 0.18506
868 1 0.753877 0.880001 0.509554
869 1 0.0465439 0.791641 0.240585
870 1 0.242226 0.383954 0.143182
871 1 0.600394 0.668839 0.10612
872 1 0.819176 0.851782 0.743967
873 1 0.35705 0.180833 0.217364
874 1 0.738352 0.30303 0.593983
875 1 0.439068 0.724856 0.0377191
876 1 0.346217 0.129686 0.0150898
877 1 0.782732 0.867041 0.0845288
878 1 0.987292 0.899794 0.461316
879 1 0.0886092 0.229952 0.181872
880 1 0.82186 0.956136 0.434089
881 1 0.628089 0.54246 0.558344
882 1 0.901033 0.462756 0.0383877
883 1 0.545015 0.512348 0.792247
884 1 0.802659 0.612175 0.239724
885 1 0.549503 0.641208 0.454523
886 1 0.938369 0.982388 0.972396
887 1 0.736852 0.293767 0.667454
888 1 0.462548 0.838741 0.136497
889 1 0.928918 0.221753 0.466114
890 1 0.940501 0.645953 0.00370425
891 1 0.476328 0.162782 0.246688
892 1 0.732048 0.131473 0.0865129
893 1 0.999364 0.849822 0.622823
894 1 0.481448 0.2778 0.842983
895 1 0.735771 0.503214 0.651077
896 1 0.901103 0.106841 0.568726
897 1 0.761708 0.0439776 0.900943
898 1 0.81193 0.0591521 0.450034
899 1 0.6529 0.768301 0.045371
900 1 0.34358 0.657424 0.401404
901 1 0.42506 0.377387 0.893364
902 1 0.556225 0.309853 0.742604
903 1 0.314337 0.135063 0.301164
904 1 0.345261 0.120757 0.79094