ITEM: TIMESTEP
35400
ITEM: NUMBER OF ATOMS
4000
ITEM: BOX BOUNDS pp pp pp
0.0000000000000000e+00 1.6795961913825074e+01
0.0000000000000000e+00 1.6795961913825074e+01
0.0000000000000000e+00 1.6795961913825074e+01
ITEM: ATOMS id type xs ys zs
1 1 0.0797722 0.99665 0.0176659
2 1 0.0565191 0.193247 0.919098
3 1 0.0590721 0.926873 0.97575
4 1 0.0985821 0.176531 0.124998
5 1 0.128497 0.0413809 0.155506
6 1 0.27642 0.0996419 0.0907852
7 1 0.267843 0.934883 0.918942
8 1 0.0200276 0.0226225 0.148931
9 1 0.440477 0.910203 0.051157
10 1 0.263829 0.990311 0.04278
11 1 0.965568 0.971539 0.109337
12 1 0.188966 0.0941884 0.775729
13 1 0.33964 0.172256 0.157429
14 1 0.329816 0.164892 0.914587
15 1 0.360739 0.230251 0.174535
16 1 0.201145 0.996689 0.205913
17 1 0.484516 0.97073 0.850803
18 1 0.369231 0.881655 0.98238
19 1 0.487171 0.869967 0.0679787
20 1 0.489121 0.0904217 0.182651
21 1 0.417915 0.839991 0.10395
22 1 0.518367 0.139129 0.126373
23 1 0.551846 0.923863 0.0193083
24 1 0.61059 0.00159385 0.836271
25 1 0.609483 0.909086 0.940689
26 1 0.613458 0.92884 0.00537759
27 1 0.605074 0.0424242 0.205021
28 1 0.711397 0.957461 0.938672
29 1 0.694199 0.0651823 0.00683679
30 1 0.819219 0.0494436 0.792668
31 1 0.815044 0.109813 0.159839
32 1 0.652704 0.119633 0.123237
33 1 0.823845 0.914451 0.965182
34 1 0.731791 0.138179 0.802741
35 1 0.671199 0.986415 0.091929
36 1 0.788714 0.110881 0.835857
37 1 0.703877 0.112109 0.958367
38 1 0.762742 0.97952 0.0234111
39 1 0.94493 0.995108 0.88983
40 1 0.87798 0.810959 0.154557
41 1 0.969647 0.18841 0.851321
42 1 0.0583987 0.959601 0.849466
43 1 0.953826 0.223135 0.253359
44 1 0.0886923 0.00148429 0.202721
45 1 0.0357081 0.974493 0.108123
46 1 0.296238 0.278048 0.0326435
47 1 0.312038 0.045703 0.0582095
48 1 0.202185 0.328182 0.0938489
49 1 0.0265307 0.905126 0.811493
50 1 0.395523 0.14976 0.17638
51 1 0.366956 0.999103 0.153257
52 1 0.0297115 0.200245 0.183929
53 1 0.211301 0.132845 0.983898
54 1 0.512779 0.103598 0.842202
55 1 0.575676 0.107395 0.250137
56 1 0.316528 0.194798 0.025717
57 1 0.551844 0.948727 0.127475
58 1 0.598612 0.118628 0.041333
59 1 0.298997 0.135687 0.0522282
60 1 0.509429 0.0620039 0.0588621
61 1 0.486993 0.29049 0.951081
62 1 0.55334 0.187614 0.0959436
63 1 0.652788 0.0387137 0.119351
64 1 0.427092 0.901127 0.970284
65 1 0.578529 0.89781 0.780747
66 1 0.553238 0.156731 0.982355
67 1 0.405422 0.841067 0.0281692
68 1 0.258601 0.0337097 0.205032
69 1 0.493022 0.0797928 1.0001
70 1 0.78736 0.242347 0.842285
71 1 0.700677 0.176906 0.118393
72 1 0.527237 0.175879 0.920293
73 1 0.866441 0.0201432 0.0380178
74 1 0.832141 0.251302 0.993796
75 1 0.757993 0.152253 0.049518
76 1 0.665256 0.161843 0.228195
77 1 0.859128 0.165453 0.109815
78 1 0.714571 0.0339856 0.146506
79 1 0.973205 0.0934021 0.964537
80 1 0.648414 0.295637 0.136878
81 1 0.149262 0.243181 0.0311938
82 1 0.97443 0.0297822 0.00657916
83 1 0.895567 0.109337 0.0493173
84 1 0.0597131 0.288929 0.0644595
85 1 0.797307 0.182085 0.816784
86 1 0.343949 0.385908 0.965665
87 1 0.40413 0.389854 0.870735
88 1 0.113006 0.137143 0.973352
89 1 0.117772 0.153969 0.0379739
90 1 0.107057 0.2082 0.989645
91 1 0.103311 0.129748 0.167584
92 1 0.293613 0.156721 0.982822
93 1 0.225369 0.316567 0.842566
94 1 0.338088 0.264001 0.75333
95 1 0.564534 0.0484832 0.0715999
96 1 0.311791 0.342816 0.16597
97 1 0.282865 0.0861191 0.894641
98 1 0.518265 0.0630442 0.124724
99 1 0.351227 0.12471 0.210756
100 1 0.570085 0.289453 0.912978
101 1 0.437752 0.0956821 0.931765
102 1 0.427586 0.197271 0.920235
103 1 0.70242 0.255702 0.988545
104 1 0.616615 0.318611 0.0343712
105 1 0.445472 0.0748257 0.0698684
106 1 0.578506 0.16494 0.874905
107 1 0.728555 0.89434 0.13983
108 1 0.601418 0.22983 0.123058
109 1 0.820787 0.852779 0.965018
110 1 0.810022 0.468063 0.0936524
111 1 0.787362 0.211935 0.00907699
112 1 0.801586 0.244709 0.92733
113 1 0.87249 0.16686 0.0491638
114 1 0.567388 0.27094 0.0270266
115 1 0.832437 0.234417 0.112099
116 1 0.672404 0.291623 0.0571469
117 1 0.941985 0.150934 0.0404023
118 1 0.813229 0.0343966 0.00274889
119 1 0.984149 0.153168 0.158361
120 1 0.780997 0.105637 0.0961348
121 1 0.0577866 0.461629 0.0360987
122 1 0.212532 0.259803 0.869306
123 1 0.00628146 0.214445 0.901448
124 1 0.191773 0.48617 0.893172
125 1 0.0993779 0.340733 0.903935
126 1 0.175733 0.36978 0.0550395
127 1 0.187773 0.365185 0.902139
128 1 0.151943 0.393759 0.953046
129 1 0.474397 0.152883 0.893768
130 1 0.543194 0.288472 0.974789
131 1 0.223254 0.0977596 0.906554
132 1 0.407076 0.396329 0.954426
133 1 0.349465 0.188901 0.215946
134 1 0.363651 0.43841 0.975362
135 1 0.297068 0.400334 0.0441705
136 1 0.395245 0.175595 0.0352436
137 1 0.364239 0.287974 0.0416762
138 1 0.488468 0.134995 0.0426017
139 1 0.560849 0.392116 0.167078
140 1 0.383031 0.322681 0.0915571
141 1 0.431505 0.284077 0.0593175
142 1 0.674281 0.37657 0.966196
143 1 0.586534 0.249187 0.949421
144 1 0.597163 0.154568 0.361298
145 1 0.905391 0.221111 0.939911
146 1 0.722518 0.280304 0.0966674
147 1 0.591815 0.334526 0.143167
148 1 0.507924 0.349338 0.976223
149 1 0.741429 0.227313 0.885741
150 1 0.732729 0.344949 0.0536128
151 1 0.820479 0.288329 0.0377086
152 1 0.672747 0.369741 0.0326671
153 1 0.793949 0.304826 0.956607
154 1 0.843614 0.354319 0.95487
155 1 0.948855 0.380486 0.948423
156 1 0.774286 0.375809 0.833481
157 1 0.000814509 0.474172 0.996658
158 1 0.0323281 0.400549 0.0183837
159 1 0.0234147 0.243248 0.0460069
160 1 0.867033 0.369553 0.034565
161 1 0.978862 0.26698 0.161053
162 1 0.158071 0.482498 0.073765
163 1 0.0562723 0.592636 0.0657361
164 1 0.0843995 0.421736 0.129034
165 1 0.136795 0.485066 0.966588
166 1 0.141333 0.538734 0.890245
167 1 0.107359 0.341674 0.202515
168 1 0.0780303 0.560218 0.887228
169 1 0.22631 0.396638 0.949357
170 1 0.149838 0.339732 0.132643
171 1 0.278265 0.228336 0.990035
172 1 0.0547351 0.462096 0.159163
173 1 0.286084 0.286919 0.967099
174 1 0.220591 0.50818 0.961358
175 1 0.277109 0.450081 0.9716
176 1 0.138381 0.365066 0.00831707
177 1 0.515804 0.396592 0.926073
178 1 0.535419 0.516665 0.125796
179 1 0.387225 0.343401 0.915836
180 1 0.370262 0.449772 0.0496538
181 1 0.540191 0.463859 0.0290211
182 1 0.711302 0.203865 0.0489407
183 1 0.565441 0.398371 0.0518492
184 1 0.392594 0.528168 0.12972
185 1 0.433674 0.316537 0.950068
186 1 0.654505 0.525015 0.151471
187 1 0.457684 0.372131 0.926107
188 1 0.449353 0.234563 0.967536
189 1 0.60327 0.135732 0.927729
190 1 0.73697 0.288814 0.0225803
191 1 0.713609 0.421692 0.1158
192 1 0.719153 0.501016 0.177571
193 1 0.729689 0.307731 0.967318
194 1 0.888933 0.463258 0.912874
195 1 0.821097 0.502739 0.236837
196 1 0.806682 0.397624 0.988347
197 1 0.81569 0.439783 0.242655
198 1 0.0692022 0.304061 0.121199
199 1 0.910293 0.379897 0.148008
200 1 0.895641 0.555343 0.974703
201 1 0.0862352 0.523182 0.124717
202 1 0.0318134 0.820106 0.973406
203 1 0.991598 0.528134 0.978781
204 1 0.972536 0.653085 0.889142
205 1 0.211207 0.549724 0.762014
206 1 0.994385 0.74773 0.946987
207 1 0.0407763 0.606803 0.848629
208 1 0.0899038 0.50444 0.855042
209 1 0.247442 0.432303 0.0999242
210 1 0.186248 0.449103 0.942928
211 1 0.271114 0.340318 0.0814845
212 1 0.044243 0.7571 0.985595
213 1 0.0917162 0.410517 0.0142575
214 1 0.191843 0.648792 0.841684
215 1 0.323893 0.455209 0.920967
216 1 0.19663 0.430635 0.0661795
217 1 0.319769 0.456527 0.016332
218 1 0.503457 0.556467 0.105643
219 1 0.296904 0.560112 0.186811
220 1 0.210376 0.555073 0.204151
221 1 0.615183 0.371514 0.996148
222 1 0.617989 0.467209 0.175182
223 1 0.562505 0.497503 0.0686035
224 1 0.473219 0.427465 0.0510817
225 1 0.505259 0.618746 0.854029
226 1 0.888147 0.300397 0.0461671
227 1 0.488659 0.510338 0.0687063
228 1 0.586152 0.622395 0.123902
229 1 0.0958247 0.691665 0.0542982
230 1 0.816762 0.498131 0.039047
231 1 0.722302 0.610047 0.931001
232 1 0.661737 0.496373 0.210736
233 1 0.824028 0.426241 0.0421884
234 1 0.868549 0.409458 0.98369
235 1 0.938534 0.479294 0.0132588
236 1 0.964759 0.608273 0.0197155
237 1 0.850753 0.30508 0.0928436
238 1 0.884141 0.465442 0.0911872
239 1 0.942423 0.46866 0.0807828
240 1 0.885755 0.432185 0.235721
241 1 0.830533 0.758512 0.119031
242 1 0.04612 0.731752 0.855341
243 1 0.884592 0.639068 0.137337
244 1 0.941697 0.717697 0.907255
245 1 0.155425 0.699737 0.0397242
246 1 0.283982 0.589156 0.855434
247 1 0.0806644 0.628074 0.89039
248 1 0.825015 0.58343 0.0809512
249 1 0.168196 0.850502 0.145646
250 1 0.167628 0.685133 0.986212
251 1 0.255005 0.632699 0.0907302
252 1 0.419197 0.766496 0.861941
253 1 0.22166 0.679048 0.0152843
254 1 0.280425 0.57549 0.0455031
255 1 0.369547 0.52243 0.0681704
256 1 0.406256 0.702906 0.0740298
257 1 0.302841 0.519268 0.0717569
258 1 0.315168 0.70436 0.730783
259 1 0.32032 0.494914 0.964409
260 1 0.454091 0.656966 0.165046
261 1 0.509422 0.53117 0.934321
262 1 0.592341 0.58541 0.0540715
263 1 0.464061 0.465141 0.17761
264 1 0.426226 0.623299 0.102582
265 1 0.515198 0.516954 0.998642
266 1 0.655831 0.694888 0.0450388
267 1 0.684891 0.664061 0.108229
268 1 0.687598 0.565875 0.172758
269 1 0.759358 0.547259 0.162505
270 1 0.773445 0.539847 0.231231
271 1 0.741494 0.610393 0.27311
272 1 0.854123 0.527882 0.0868223
273 1 0.918689 0.538175 0.0789163
274 1 0.70957 0.811877 0.000213302
275 1 0.666767 0.636583 0.0441104
276 1 0.688445 0.547122 0.969873
277 1 0.841599 0.568289 0.136195
278 1 0.795866 0.622067 0.853682
279 1 0.758909 0.660024 0.897538
280 1 0.710209 0.659659 0.99028
281 1 0.903022 0.732004 0.0666528
282 1 0.121611 0.96174 0.0614304
283 1 0.998644 0.68191 0.124574
284 1 0.926501 0.907276 0.86126
285 1 0.950183 0.76444 0.137577
286 1 0.317548 0.881697 0.140775
287 1 0.262004 0.679832 0.971136
288 1 0.0692743 0.633042 0.970919
289 1 0.346204 0.850991 0.0299124
290 1 0.361121 0.799209 0.872462
291 1 0.320011 0.767673 0.0532859
292 1 0.459651 0.695562 0.00771063
293 1 0.289093 0.582533 0.103812
294 1 0.465654 0.670509 0.889688
295 1 0.197026 0.745216 0.120327
296 1 0.275387 0.654194 0.20875
297 1 0.541195 0.852372 0.0383787
298 1 0.471517 0.755155 0.0355382
299 1 0.392631 0.606283 0.888101
300 1 0.24656 0.970837 0.873099
301 1 0.331754 0.689111 0.0805607
302 1 0.471368 0.724629 0.106587
303 1 0.729191 0.671168 0.232231
304 1 0.515788 0.797363 0.998542
305 1 0.439293 0.554988 0.966022
306 1 0.477857 0.634276 0.715954
307 1 0.603507 0.826716 0.0381678
308 1 0.444675 0.657781 0.0527128
309 1 0.823389 0.498666 0.147196
310 1 0.734066 0.916004 0.981698
311 1 0.795224 0.607342 0.224874
312 1 0.580442 0.695252 0.159135
313 1 0.60753 0.558254 0.906828
314 1 0.76377 0.826801 0.871295
315 1 0.820658 0.827949 0.0227715
316 1 0.654877 0.72428 0.979502
317 1 0.854482 0.741172 0.980216
318 1 0.90575 0.661119 0.895829
319 1 0.946002 0.552249 0.0159104
320 1 0.802053 0.740321 0.94912
321 1 0.0674727 0.874513 0.872854
322 1 0.866655 0.901674 0.90914
323 1 0.0489866 0.799816 0.0802943
324 1 0.975963 0.845292 0.0605348
325 1 0.0929023 0.783295 0.951903
326 1 0.963575 0.699105 0.851689
327 1 0.942297 0.691665 0.0377596
328 1 0.154666 0.853571 0.0252616
329 1 0.977743 0.803327 0.918545
330 1 0.411686 0.955908 0.95239
331 1 0.362283 0.716272 0.0265846
332 1 0.144713 0.938338 0.27923
333 1 0.36074 0.979616 0.931181
334 1 0.291366 0.70875 0.0264226
335 1 0.519595 0.75577 0.195687
336 1 0.194097 0.943351 0.185651
337 1 0.260407 0.763147 0.0149817
338 1 0.353368 0.852045 0.0975824
339 1 0.353611 0.749603 0.776997
340 1 0.327893 0.919917 0.0716742
341 1 0.581447 0.703515 0.831362
342 1 0.573386 0.926096 0.273543
343 1 0.527856 0.878306 0.954887
344 1 0.353705 0.70793 0.14997
345 1 0.502954 0.366361 0.0457479
346 1 0.740545 0.026997 0.969537
347 1 0.484767 0.590184 0.155772
348 1 0.559349 0.895358 0.217667
349 1 0.595347 0.698911 0.0241522
350 1 0.585945 0.868232 0.99328
351 1 0.725297 0.684983 0.0695182
352 1 0.872374 0.979461 0.297686
353 1 0.830875 0.0343482 0.910191
354 1 0.768388 0.808836 0.0477573
355 1 0.845672 0.730002 0.0614578
356 1 0.666107 0.824502 0.0590833
357 1 0.716668 0.744963 0.0561137
358 1 0.968559 0.770415 0.860657
359 1 0.78435 0.636459 0.0630776
360 1 0.809933 0.873159 0.0651208
361 1 0.167501 0.91972 0.0341691
362 1 0.136622 0.758697 0.761994
363 1 0.0949079 0.933267 0.106071
364 1 0.225195 0.0112352 1.00004
365 1 0.912809 0.135278 0.98427
366 1 0.218183 0.908793 0.905126
367 1 0.129191 0.988446 0.11801
368 1 0.221877 0.0303566 0.258973
369 1 0.288536 0.127233 0.144909
370 1 0.322066 0.332113 0.0546385
371 1 0.27037 0.039771 0.0997889
372 1 0.0164526 0.923631 0.130632
373 1 0.378873 0.995133 0.87428
374 1 0.16794 0.019013 0.955849
375 1 0.418488 0.767684 0.0921744
376 1 0.353158 0.940046 0.124414
377 1 0.355849 0.783448 0.929906
378 1 0.468591 0.877212 0.934508
379 1 0.543334 0.972422 0.194603
380 1 0.419971 0.913602 0.131193
381 1 0.527263 0.915981 0.0846681
382 1 0.594416 0.164788 0.227362
383 1 0.709913 0.119878 0.230845
384 1 0.461612 0.0492229 0.350706
385 1 0.612299 0.00822727 0.0730534
386 1 0.702707 0.0587714 0.0809758
387 1 0.581646 0.00108661 0.943915
388 1 0.554713 0.109201 0.0869122
389 1 0.710136 0.0051527 0.89285
390 1 0.959398 0.982183 0.0473721
391 1 0.73583 0.940475 0.196965
392 1 0.704013 0.831012 0.149439
393 1 0.691162 0.889071 0.6674
394 1 0.992429 0.942194 0.99089
395 1 0.60914 0.742589 0.0667599
396 1 0.788708 0.101976 0.900718
397 1 0.201137 0.0725768 0.00448053
398 1 0.0138814 0.898322 0.947505
399 1 0.116359 0.0504542 1.00101
400 1 0.639053 0.876373 0.053909
401 1 0.949841 0.0918407 0.0202492
402 1 0.276008 0.245401 0.146118
403 1 0.241475 0.0532165 0.0474716
404 1 0.767718 0.0407425 0.0995313
405 1 0.134536 0.127892 0.290443
406 1 0.207571 0.0945038 0.0892664
407 1 0.292545 0.995915 0.13932
408 1 0.452303 0.150432 0.148244
409 1 0.185395 0.124665 0.210266
410 1 0.182108 0.995664 0.145902
411 1 0.144186 0.908196 0.161764
412 1 0.273227 0.907895 0.224263
413 1 0.232876 0.961505 0.134468
414 1 0.335755 0.977414 0.049911
415 1 0.387293 0.941527 0.0494942
416 1 0.352146 0.0882304 0.270914
417 1 0.493774 0.894608 0.0160646
418 1 0.405312 0.0875002 0.178484
419 1 0.397276 0.074437 0.318063
420 1 0.305392 0.0143512 0.246025
421 1 0.339513 0.0421191 0.125089
422 1 0.607156 0.913095 0.166215
423 1 0.752403 0.812284 0.282511
424 1 0.458151 0.00610035 0.27681
425 1 0.396284 0.972585 0.263984
426 1 0.664629 0.949621 0.199729
427 1 0.742427 0.864956 0.065358
428 1 0.589009 0.0449731 1.00136
429 1 0.663874 0.217538 0.0968851
430 1 0.744931 0.0996446 0.0101933
431 1 0.727612 0.928605 0.0451577
432 1 0.717957 0.0578705 0.201311
433 1 0.925788 0.932074 0.0301003
434 1 0.981814 0.98603 0.232985
435 1 0.716552 0.114635 0.0872976
436 1 0.818925 0.0654887 0.207385
437 1 0.813643 0.000744905 0.0723793
438 1 0.726998 0.0710665 0.909052
439 1 0.824618 0.974058 0.95441
440 1 0.804913 0.999601 0.143301
441 1 0.0385792 0.0869405 0.964107
442 1 0.0681462 0.142743 0.0806338
443 1 0.0351281 0.180935 0.0426254
444 1 0.0521623 0.0949291 0.121411
445 1 0.23846 0.995874 0.932547
446 1 0.0817508 0.225105 0.0468778
447 1 0.983039 0.129301 0.271966
448 1 0.308083 0.963836 0.193906
449 1 0.121384 0.251641 0.335144
450 1 0.0946529 0.193966 0.278458
451 1 0.418353 0.00556642 0.0516746
452 1 0.178295 0.0094269 0.309977
453 1 0.225499 0.0572157 0.140366
454 1 0.418401 0.416224 0.00767927
455 1 0.411509 0.914729 0.232039
456 1 0.263323 0.371083 0.997457
457 1 0.355712 0.229057 0.0646535
458 1 0.542719 0.0487255 0.188309
459 1 0.595229 0.137286 0.125124
460 1 0.397921 0.108011 0.0561064
461 1 0.480637 0.813202 0.19895
462 1 0.23921 0.0149899 0.412373
463 1 0.467665 0.841068 0.262277
464 1 0.545219 0.169282 0.302684
465 1 0.526281 0.00401298 0.100996
466 1 0.813867 0.133546 0.947434
467 1 0.562651 0.9691 0.0704037
468 1 0.723323 0.180563 0.253899
469 1 0.760407 0.353254 0.941662
470 1 0.58523 0.00189777 0.167894
471 1 0.875303 0.0737545 0.154285
472 1 0.697408 0.143094 0.021987
473 1 0.863828 0.180194 0.218362
474 1 0.0981928 0.278447 0.878631
475 1 0.995894 0.146009 0.899012
476 1 0.857567 0.0804957 0.00925976
477 1 0.743652 0.987957 0.0830537
478 1 0.98373 0.194781 0.0656407
479 1 0.93658 0.0315109 0.224412
480 1 0.860563 0.019932 0.18202
481 1 0.0609469 0.175758 0.990945
482 1 0.234744 0.244079 0.0310027
483 1 0.152611 0.182506 0.176
484 1 0.918854 0.257546 0.157665
485 1 0.159305 0.104984 0.144221
486 1 0.196044 0.256446 0.0894833
487 1 0.194661 0.497616 0.193632
488 1 0.922553 0.213066 0.0691587
489 1 0.107979 0.0788914 0.109705
490 1 0.308684 0.359239 0.230302
491 1 0.327704 0.217068 0.117876
492 1 0.235832 0.313914 0.029074
493 1 0.192997 0.212059 0.911476
494 1 0.392606 0.0994052 0.123982
495 1 0.30992 0.147265 0.260285
496 1 0.32096 0.412855 0.154971
497 1 0.375614 0.075464 0.97947
498 1 0.312857 0.0354311 0.183233
499 1 0.402461 0.14628 0.238669
500 1 0.304626 0.0103782 0.899577
501 1 0.437905 0.188212 0.209026
502 1 0.478918 0.195427 0.0968093
503 1 0.727361 0.289739 0.218328
504 1 0.495708 0.284078 0.157408
505 1 0.564056 0.103107 0.955279
506 1 0.734617 0.414454 0.250463
507 1 0.680037 0.140266 0.300262
508 1 0.617028 0.0771582 0.0916795
509 1 0.638814 0.260586 0.00367395
510 1 0.753697 0.0410353 0.0363843
511 1 0.597445 0.0828719 0.151631
512 1 0.706985 0.208556 0.333871
513 1 0.623084 0.329904 0.317261
514 1 0.934684 0.351652 0.0511016
515 1 0.76545 0.243496 0.136057
516 1 0.870164 0.340776 0.892781
517 1 0.958022 0.200299 0.00446388
518 1 0.842836 0.110216 0.0944061
519 1 0.0104902 0.259356 0.222063
520 1 0.881891 0.305684 0.973497
521 1 0.119804 0.339217 0.0743975
522 1 0.0873519 0.241913 0.109703
523 1 0.864627 0.140891 0.169486
524 1 0.00930419 0.32467 0.10241
525 1 0.0479085 0.283847 0.00321486
526 1 0.394231 0.336659 0.0110268
527 1 0.0286676 0.258728 0.109994
528 1 0.162682 0.173954 0.982176
529 1 0.249356 0.281497 0.0876631
530 1 0.202304 0.376597 0.998779
531 1 0.122795 0.464177 0.153782
532 1 0.10534 0.410753 0.919164
533 1 0.347611 0.249503 0.992219
534 1 0.171762 0.539889 0.95703
535 1 0.421276 0.477019 0.0655956
536 1 0.422499 0.373296 0.229255
537 1 0.385357 0.36322 0.136283
538 1 0.619849 0.242076 0.0652025
539 1 0.467151 0.26474 0.105727
540 1 0.497891 0.444643 0.234427
541 1 0.520994 0.234208 0.922853
542 1 0.657471 0.176585 0.343812
543 1 0.519302 0.119963 0.227035
544 1 0.506448 0.375189 0.857955
545 1 0.59936 0.213241 0.99933
546 1 0.568916 0.336864 0.0718434
547 1 0.580915 0.27888 0.0874192
548 1 0.702094 0.341122 0.102343
549 1 0.767337 0.184873 0.927228
550 1 0.853841 0.284942 0.166503
551 1 0.638199 0.185781 0.905197
552 1 0.794923 0.301852 0.140045
553 1 0.937581 0.275887 0.988309
554 1 0.77687 0.414908 0.0936803
555 1 0.834251 0.268965 0.220412
556 1 0.769897 0.304097 0.334943
557 1 0.0613203 0.310526 0.958182
558 1 0.809704 0.403633 0.92476
559 1 0.784282 0.26951 0.193385
560 1 0.908338 0.278315 0.0995671
561 1 0.0576396 0.270063 0.169114
562 1 0.84442 0.413577 0.122952
563 1 0.881269 0.353817 0.0965342
564 1 0.949044 0.324985 0.114078
565 1 0.268045 0.576981 0.980185
566 1 0.0569204 0.510939 0.990272
567 1 0.0080607 0.361918 0.0564388
568 1 0.116807 0.463472 0.220501
569 1 0.0902038 0.359933 0.136617
570 1 0.0394082 0.495062 0.103398
571 1 0.197065 0.306015 0.919973
572 1 0.972058 0.398902 0.0193689
573 1 0.21535 0.280467 0.984278
574 1 0.080904 0.502748 0.921706
575 1 0.443487 0.36052 0.0594638
576 1 0.249253 0.338479 0.947506
577 1 0.345163 0.384925 0.089633
578 1 0.380171 0.13636 0.941952
579 1 0.582856 0.409092 0.934676
580 1 0.229178 0.571527 0.108113
581 1 0.5929 0.393805 0.108446
582 1 0.509973 0.42128 0.158471
583 1 0.77822 0.454356 0.00714899
584 1 0.51903 0.302801 0.0588263
585 1 0.526396 0.441546 0.0915674
586 1 0.68018 0.450787 0.158719
587 1 0.489822 0.241007 0.028874
588 1 0.369778 0.458566 0.252398
589 1 0.651133 0.197005 0.0346884
590 1 0.748654 0.315426 0.276421
591 1 0.778992 0.393075 0.189488
592 1 0.6162 0.446152 0.0378571
593 1 0.894548 0.244981 0.0268716
594 1 0.841538 0.334092 0.215489
595 1 0.775628 0.185694 0.116003
596 1 0.783484 0.333308 0.205983
597 1 0.914104 0.407331 0.0908156
598 1 0.725778 0.554867 0.107851
599 1 0.904675 0.233714 0.28801
600 1 0.738085 0.59567 0.196491
601 1 0.0746369 0.512879 0.19404
602 1 0.889102 0.603381 0.060713
603 1 0.0179285 0.412827 0.202023
604 1 0.983339 0.735724 0.0306366
605 1 0.0804 0.351733 0.0130085
606 1 0.246018 0.521679 0.0570138
607 1 0.947688 0.43251 0.978737
608 1 0.0581918 0.654426 0.024091
609 1 0.239525 0.387552 0.051817
610 1 0.195314 0.683019 0.0757712
611 1 0.202139 0.627694 0.139673
612 1 0.112291 0.55835 0.971658
613 1 0.0465073 0.532253 0.0485431
614 1 0.271308 0.535301 0.251939
615 1 0.164666 0.423581 0.0170624
616 1 0.393173 0.61049 0.285191
617 1 0.365338 0.443908 0.115256
618 1 0.395101 0.265361 0.957331
619 1 0.347232 0.588907 0.130331
620 1 0.222083 0.435591 0.00559524
621 1 0.436592 0.541016 0.0866654
622 1 0.559627 0.466776 0.254488
623 1 0.692214 0.494806 0.109036
624 1 0.476471 0.349961 0.227287
625 1 0.6224 0.549491 0.969754
626 1 0.804909 0.361634 0.13984
627 1 0.676214 0.415801 0.0703229
628 1 0.67345 0.393061 0.22424
629 1 0.570581 0.515464 0.214429
630 1 0.619837 0.657596 0.183007
631 1 0.762251 0.484356 0.136721
632 1 0.730776 0.544474 0.283344
633 1 0.859023 0.51651 0.281573
634 1 0.903288 0.605495 0.301428
635 1 0.800852 0.442586 0.154412
636 1 0.851447 0.607832 0.183543
637 1 0.745487 0.436126 0.174466
638 1 0.732711 0.627831 0.0391849
639 1 0.123767 0.418426 0.0602784
640 1 0.935094 0.486114 0.169499
641 1 0.06634 0.568881 0.16753
642 1 0.159196 0.599801 0.088198
643 1 0.246543 0.761506 0.0760008
644 1 0.0900461 0.767406 0.298276
645 1 0.969992 0.511001 0.122957
646 1 0.318065 0.63204 0.0629811
647 1 0.159813 0.789999 0.171007
648 1 0.133027 0.724443 0.150347
649 1 0.187376 0.549268 0.0653602
650 1 0.147644 0.893883 0.0976245
651 1 0.148676 0.52453 0.0184649
652 1 0.255575 0.700101 0.0698015
653 1 0.206048 0.560678 0.0079007
654 1 0.149576 0.600879 0.287882
655 1 0.152585 0.581857 0.189448
656 1 0.373932 0.65184 0.119291
657 1 0.289753 0.817866 0.0377531
658 1 0.534783 0.696377 0.199034
659 1 0.333954 0.518952 0.236613
660 1 0.496326 0.78712 0.0926791
661 1 0.550983 0.575181 0.136621
662 1 0.467678 0.596192 0.0461488
663 1 0.47712 0.679717 0.265513
664 1 0.46698 0.5323 0.140112
665 1 0.555038 0.644425 0.184295
666 1 0.834905 0.666888 0.342526
667 1 0.502821 0.567821 0.301781
668 1 0.768093 0.593697 0.117008
669 1 0.602776 0.582994 0.17269
670 1 0.776175 0.579063 0.0412667
671 1 0.777115 0.489722 0.196949
672 1 0.798929 0.575833 0.295832
673 1 0.763184 0.658357 0.12111
674 1 0.846549 0.563655 0.23899
675 1 0.0195525 0.690693 0.939144
676 1 0.894875 0.562421 0.169139
677 1 0.655361 0.611445 0.145203
678 1 0.942144 0.657677 0.0996137
679 1 0.845633 0.656803 0.0820243
680 1 0.961451 0.512947 0.220214
681 1 0.233445 0.827846 0.188519
682 1 0.000473139 0.673705 0.05283
683 1 0.995885 0.618841 0.0757903
684 1 0.942016 0.897935 0.219185
685 1 0.138274 0.738702 0.0823032
686 1 0.0264432 0.696853 0.00367615
687 1 0.251579 0.866332 0.0389035
688 1 0.301489 0.744166 0.130519
689 1 0.372372 0.584121 0.0732767
690 1 0.338608 0.904404 0.198886
691 1 0.359466 0.825019 0.223469
692 1 0.0334481 0.803921 0.360967
693 1 0.336986 0.654515 0.19327
694 1 0.538965 0.841856 0.096629
695 1 0.418648 0.689348 0.225401
696 1 0.527514 0.698885 0.132691
697 1 0.529463 0.579318 0.0301648
698 1 0.369777 0.666852 0.933003
699 1 0.424677 0.438924 0.225374
700 1 0.441477 0.827331 0.32675
701 1 0.453164 0.834133 0.996082
702 1 0.543714 0.79249 0.927593
703 1 0.569585 0.674068 0.0995935
704 1 0.244197 0.830237 0.0911211
705 1 0.491194 0.5825 0.96519
706 1 0.625201 0.695263 0.109127
707 1 0.755333 0.781509 0.356845
708 1 0.785419 0.698925 0.3182
709 1 0.60931 0.712797 0.263197
710 1 0.849429 0.69838 0.14612
711 1 0.513102 0.499274 0.217163
712 1 0.817819 0.633044 0.138568
713 1 0.631908 0.669525 0.927442
714 1 0.0166999 0.794458 0.170156
715 1 0.923759 0.576007 0.225875
716 1 0.881586 0.507235 0.149872
717 1 0.716236 0.720766 0.125676
718 1 0.743053 0.701444 0.014043
719 1 0.1337 0.721126 0.27775
720 1 0.760588 0.770045 0.157245
721 1 0.994008 0.772595 0.097809
722 1 0.202553 0.907146 0.126412
723 1 0.250575 0.706725 0.213592
724 1 0.0397359 0.675201 0.169661
725 1 0.0594901 0.869443 0.0175413
726 1 0.232896 0.114953 0.036669
727 1 0.0386666 0.602109 0.307384
728 1 0.0508656 0.0447949 0.0894884
729 1 0.0147845 0.829847 0.118053
730 1 0.239842 0.941764 0.973335
731 1 0.23269 0.744114 0.167224
732 1 0.307589 0.709897 0.1925
733 1 0.376649 0.866595 0.163542
734 1 0.508502 0.782861 0.262177
735 1 0.3608 0.650226 0.253089
736 1 0.450641 0.810394 0.0599315
737 1 0.53389 0.716886 0.258373
738 1 0.630197 0.872487 0.115174
739 1 0.521466 0.902448 0.165976
740 1 0.372145 0.811065 0.149904
741 1 0.762779 0.903627 0.253116
742 1 0.663737 0.829099 0.207484
743 1 0.62244 0.945948 0.0713229
744 1 0.484827 0.889894 0.28734
745 1 0.467609 0.940876 0.187806
746 1 0.696101 0.869791 0.027414
747 1 0.557295 0.747153 0.0958529
748 1 0.393484 0.660398 0.174308
749 1 0.711542 0.536113 0.226137
750 1 0.767996 0.829811 0.11225
751 1 0.613445 0.644723 0.0696809
752 1 0.68915 0.868867 0.0917663
753 1 0.761281 0.811915 0.951867
754 1 0.0514034 0.133731 0.933515
755 1 0.64148 0.762743 0.227955
756 1 0.770697 0.826071 0.183776
757 1 0.0136028 0.737072 0.154691
758 1 0.894816 0.974229 0.0616636
759 1 0.955355 0.804459 0.184384
760 1 0.794586 0.699898 0.0664909
761 1 0.0903755 0.71592 0.189466
762 1 0.9085 0.993438 0.116088
763 1 0.0480848 0.942491 0.0350052
764 1 0.00618666 0.133986 0.068468
765 1 0.139746 0.907312 0.979261
766 1 0.15809 0.111155 0.020195
767 1 0.114188 0.0411948 0.335329
768 1 0.979647 0.936551 0.182749
769 1 0.450764 0.779701 0.28442
770 1 0.975137 0.941297 0.844539
771 1 0.180781 0.960276 0.0791242
772 1 0.119434 0.0286296 0.0742733
773 1 0.464016 0.822331 0.13755
774 1 0.285255 0.0718013 0.147343
775 1 0.293127 0.804498 0.242895
776 1 0.192785 0.940405 0.41494
777 1 0.453173 0.00283985 0.975352
778 1 0.625373 0.995808 0.308302
779 1 0.485661 0.930823 0.966064
780 1 0.305389 0.81911 0.973865
781 1 0.490436 0.993953 0.22187
782 1 0.605522 0.859555 0.199348
783 1 0.35527 0.0284017 0.270346
784 1 0.680252 0.926279 0.0838215
785 1 0.559569 0.661576 0.239754
786 1 0.574813 0.886799 0.0740019
787 1 0.782326 0.70492 0.249594
788 1 0.372549 0.046356 0.0441125
789 1 0.65425 0.986861 0.258579
790 1 0.694895 0.957374 0.138799
791 1 0.861113 0.786872 0.0206344
792 1 0.577485 0.994795 0.43678
793 1 0.778773 0.771065 0.220547
794 1 0.576662 0.863441 0.138977
795 1 0.0234318 0.995379 0.986063
796 1 0.77675 0.89057 0.181271
797 1 0.882835 0.880989 0.961953
798 1 0.922134 0.0510276 0.0605379
799 1 0.0716332 0.168066 0.221556
800 1 0.891709 0.945037 0.978182
801 1 0.0237651 0.00342992 0.0473589
802 1 0.136446 0.970227 0.180885
803 1 0.194598 0.0586617 0.199293
804 1 0.956442 0.98877 0.169716
805 1 0.798274 0.937904 0.0705918
806 1 0.0846563 0.103112 0.242162
807 1 0.954407 0.978703 0.386738
808 1 0.244388 0.946792 0.280618
809 1 0.218822 0.00912499 0.0892855
810 1 0.243492 0.995456 0.33797
811 1 0.184143 0.90328 0.313167
812 1 0.19309 0.0858098 0.263422
813 1 0.253118 0.955968 0.405522
814 1 0.170706 0.0524721 0.0628891
815 1 0.397275 0.0769531 0.389053
816 1 0.191776 0.96163 0.252912
817 1 0.329205 0.0470475 0.331172
818 1 0.406156 0.9282 0.370924
819 1 0.48268 0.915064 0.382168
820 1 0.220666 0.0931536 0.319582
821 1 0.611718 0.958556 0.218817
822 1 0.570503 0.0882806 0.32209
823 1 0.559432 0.855966 0.34388
824 1 0.495299 0.0609846 0.293959
825 1 0.510719 0.971268 0.00603883
826 1 0.617698 0.969997 0.121842
827 1 0.818824 0.853376 0.134094
828 1 0.824028 0.073661 0.335281
829 1 0.940257 0.0915705 0.198709
830 1 0.868749 0.89499 0.406224
831 1 0.717073 0.799869 0.0937473
832 1 0.624739 0.118586 0.195476
833 1 0.650677 0.711112 0.18128
834 1 0.867766 0.963129 0.179264
835 1 0.933225 0.105388 0.13354
836 1 0.821551 0.916371 0.134757
837 1 0.969179 0.0397866 0.103326
838 1 0.919075 0.321524 0.172756
839 1 0.056449 0.0563306 0.0205055
840 1 0.876452 0.0917648 0.293967
841 1 0.127909 0.0823122 0.201596
842 1 0.994737 0.284955 0.977225
843 1 0.962666 0.158484 0.221352
844 1 0.0618146 0.15257 0.332034
845 1 0.919183 0.173616 0.274986
846 1 0.190247 0.244591 0.216567
847 1 0.0348257 0.273852 0.277524
848 1 0.0502679 0.965345 0.331323
849 1 0.983998 0.0853321 0.158247
850 1 0.284514 0.766902 0.195258
851 1 0.12943 0.0854242 0.431539
852 1 0.261469 0.189997 0.247377
853 1 0.359207 0.0555976 0.212682
854 1 0.403107 0.172239 0.116983
855 1 0.539333 0.0219894 0.02388
856 1 0.497521 0.231986 0.208842
857 1 0.38453 0.192419 0.345858
858 1 0.434996 0.127949 0.287339
859 1 0.495415 0.991956 0.352245
860 1 0.340832 0.116765 0.335365
861 1 0.661755 0.100278 0.0479115
862 1 0.581281 0.216064 0.334939
863 1 0.363011 0.992987 0.214072
864 1 0.501772 0.00894255 0.158782
865 1 0.403012 0.0388305 0.114563
866 1 0.639061 0.180394 0.143847
867 1 0.669466 0.892599 0.168373
868 1 0.680402 0.331512 0.193074
869 1 0.732152 0.10235 0.155298
870 1 0.66211 0.00300029 0.173693
871 1 0.708759 0.245022 0.147249
872 1 0.881049 0.0200561 0.251846
873 1 0.918319 0.964696 0.222424
874 1 0.891537 0.221354 0.118602
875 1 0.709308 0.995391 0.233445
876 1 0.821952 0.0577026 0.124634
877 1 0.69819 0.186116 0.176661
878 1 0.939963 0.171272 0.121781
879 1 0.10027 0.27232 0.279744
880 1 0.82755 0.0807446 0.262183
881 1 0.157608 0.0981227 0.382862
882 1 0.862205 0.344168 0.152033
883 1 0.162088 0.0862208 0.320971
884 1 0.123483 0.282655 0.178711
885 1 0.146583 0.287986 0.23785
886 1 0.845126 0.212608 0.263102
887 1 0.12662 0.146928 0.229386
888 1 0.16082 0.38329 0.308218
889 1 0.252027 0.241631 0.201691
890 1 0.972695 0.257578 0.0934959
891 1 0.237047 0.297909 0.147103
892 1 0.316382 0.29454 0.0986932
893 1 0.245462 0.0988013 0.190493
894 1 0.448946 0.384758 0.145306
895 1 0.451476 0.226073 0.36194
896 1 0.229627 0.236842 0.265617
897 1 0.339769 0.0967845 0.152193
898 1 0.357725 0.265921 0.25339