ITEM: TIMESTEP
15200
ITEM: NUMBER OF ATOMS
4000
ITEM: BOX BOUNDS pp pp pp
0.0000000000000000e+00 1.6795961913825074e+01
0.0000000000000000e+00 1.6795961913825074e+01
0.0000000000000000e+00 1.6795961913825074e+01
ITEM: ATOMS id type xs ys zs
1 1 0.997251 0.995538 0.996162
2 1 0.0446207 0.0519341 0.998088
3 1 0.0469024 0.00546153 0.0447193
4 1 0.998895 0.0479937 0.0419668
5 1 0.097405 0.0069347 0.00817596
6 1 0.146334 0.0522093 0.997896
7 1 0.144576 0.993159 0.0481381
8 1 0.0928716 0.0544302 0.051711
9 1 0.191308 0.996986 0.988198
10 1 0.246027 0.0482242 0.00432715
11 1 0.250699 0.99258 0.049241
12 1 0.18375 0.0503155 0.0507024
13 1 0.295204 0.996443 0.00450469
14 1 0.346956 0.0484847 0.991558
15 1 0.351868 0.994549 0.0482649
16 1 0.30248 0.0490449 0.0451217
17 1 0.388823 0.995945 -0.00031935
18 1 0.454099 0.0458017 0.0029523
19 1 0.454779 1.00082 0.053029
20 1 0.401629 0.0423388 0.0439465
21 1 0.499237 0.996308 0.998292
22 1 0.53472 0.0465122 0.998729
23 1 0.547448 0.998524 0.0475394
24 1 0.504005 0.0486815 0.0550749
25 1 0.595729 0.00437412 1.00044
26 1 0.643381 0.0433002 0.992631
27 1 0.642685 0.00621661 0.0450118
28 1 0.598575 0.0542361 0.0486875
29 1 0.693518 0.999408 0.991405
30 1 0.748171 0.0524171 0.00886653
31 1 0.74433 0.99508 0.0477171
32 1 0.69588 0.0482621 0.0522814
33 1 0.797346 0.00556028 0.00377406
34 1 0.850038 0.0511477 0.00222303
35 1 0.848557 0.995034 0.043891
36 1 0.804297 0.0538124 0.0454525
37 1 0.896453 0.00108767 0.999649
38 1 0.945388 0.0495713 0.997095
39 1 0.947513 0.00506088 0.0445609
40 1 0.899267 0.0519004 0.0465876
41 1 0.997905 0.101816 0.999434
42 1 0.0399599 0.146356 0.00161808
43 1 0.0506736 0.103947 0.047255
44 1 0.995192 0.149647 0.0493902
45 1 0.0991681 0.0967904 0.000414686
46 1 0.149117 0.144658 0.999279
47 1 0.150628 0.102806 0.0611008
48 1 0.101043 0.145149 0.0446061
49 1 0.196155 0.100299 0.000879499
50 1 0.242745 0.15079 0.990496
51 1 0.24645 0.107537 0.0442441
52 1 0.198025 0.154279 0.04962
53 1 0.299505 0.0987508 0.999761
54 1 0.350343 0.146432 0.000996942
55 1 0.347983 0.0921728 0.0397719
56 1 0.29687 0.150133 0.0430999
57 1 0.399151 0.0972061 0.00107611
58 1 0.448009 0.14442 0.00863004
59 1 0.448613 0.0914973 0.0448975
60 1 0.40035 0.148411 0.051099
61 1 0.495313 0.0975345 0.0040739
62 1 0.550537 0.148036 0.993343
63 1 0.548201 0.0921374 0.0452873
64 1 0.505947 0.152627 0.0561389
65 1 0.600749 0.0944558 0.997466
66 1 0.647658 0.149893 0.00147554
67 1 0.647436 0.0987549 0.0474275
68 1 0.593187 0.140874 0.0460523
69 1 0.69463 0.094983 0.994864
70 1 0.744977 0.149951 0.998277
71 1 0.74516 0.101695 0.051348
72 1 0.691867 0.14477 0.0473655
73 1 0.805583 0.106374 0.993918
74 1 0.855732 0.147849 0.991904
75 1 0.849337 0.102019 0.0475632
76 1 0.791029 0.154507 0.048961
77 1 0.900881 0.0974658 0.00342743
78 1 0.954322 0.15559 0.998302
79 1 0.946718 0.106807 0.0490496
80 1 0.894491 0.149586 0.0443192
81 1 0.0023477 0.207368 1.00004
82 1 0.0508757 0.245958 0.991986
83 1 0.0441285 0.195965 0.0545435
84 1 0.00404372 0.249316 0.0470517
85 1 0.0981253 0.192836 0.00354266
86 1 0.14728 0.253929 1.00003
87 1 0.144906 0.195897 0.0487831
88 1 0.0907439 0.244922 0.0471646
89 1 0.184512 0.1959 0.00234864
90 1 0.252884 0.25156 0.00227177
91 1 0.251328 0.203617 0.0469806
92 1 0.197262 0.242605 0.047717
93 1 0.297491 0.197467 0.00223277
94 1 0.353662 0.23925 0.00126338
95 1 0.350652 0.196381 0.0469982
96 1 0.301524 0.246125 0.0507391
97 1 0.393366 0.193137 0.996506
98 1 0.455687 0.244066 0.00117694
99 1 0.457475 0.199151 0.0528424
100 1 0.401124 0.24242 0.0476863
101 1 0.500128 0.19328 0.000251458
102 1 0.547753 0.244702 -0.000344318
103 1 0.549587 0.198508 0.0484501
104 1 0.503523 0.24643 0.0524928
105 1 0.598254 0.200999 0.992876
106 1 0.6505 0.246945 0.994961
107 1 0.645303 0.199923 0.0448923
108 1 0.596 0.247954 0.0463981
109 1 0.696997 0.194647 1.00046
110 1 0.748999 0.252948 0.999339
111 1 0.742704 0.1972 0.0498463
112 1 0.696968 0.25268 0.0473554
113 1 0.791659 0.203611 0.00159881
114 1 0.846947 0.247364 0.996257
115 1 0.845511 0.197219 0.0431845
116 1 0.801559 0.256593 0.0442145
117 1 0.900964 0.197302 0.994875
118 1 0.94427 0.250269 0.00717069
119 1 0.951123 0.19896 0.0495348
120 1 0.891685 0.251674 0.0512702
121 1 0.997917 0.295129 0.000531731
122 1 0.0498139 0.34402 0.0002491
123 1 0.0465628 0.298078 0.0468545
124 1 0.00326427 0.346722 0.048434
125 1 0.097788 0.299565 0.999229
126 1 0.144287 0.359838 0.998163
127 1 0.148937 0.295977 0.0518153
128 1 0.0889458 0.34996 0.0574618
129 1 0.197814 0.297562 0.998568
130 1 0.254241 0.344457 0.993511
131 1 0.257938 0.295447 0.0537212
132 1 0.206125 0.352991 0.0434596
133 1 0.304576 0.288956 0.998931
134 1 0.349833 0.342975 0.992707
135 1 0.348829 0.301364 0.0445205
136 1 0.295519 0.342383 0.0463491
137 1 0.399283 0.286137 0.998929
138 1 0.451709 0.339932 0.00785871
139 1 0.457586 0.291979 0.0485012
140 1 0.401675 0.342309 0.0472801
141 1 0.499026 0.295273 0.990977
142 1 0.548243 0.348329 0.996412
143 1 0.547322 0.293235 0.0501919
144 1 0.503951 0.343452 0.055425
145 1 0.591772 0.29283 0.997063
146 1 0.63918 0.343787 0.000386852
147 1 0.651556 0.300585 0.0451272
148 1 0.594601 0.333457 0.0471808
149 1 0.699771 0.302247 0.0020663
150 1 0.74372 0.351093 0.991528
151 1 0.751995 0.293973 0.049547
152 1 0.704022 0.347952 0.051822
153 1 0.800247 0.299719 0.991197
154 1 0.845532 0.347927 0.998728
155 1 0.841259 0.302495 0.0458273
156 1 0.791561 0.349881 0.0467467
157 1 0.895067 0.302336 0.00198332
158 1 0.951942 0.349992 0.00586852
159 1 0.944171 0.301368 0.0526497
160 1 0.896718 0.349901 0.0410285
161 1 0.00391784 0.392123 0.00375412
162 1 0.0456356 0.447099 0.997295
163 1 0.045487 0.39988 0.0528546
164 1 0.99608 0.445331 0.0488758
165 1 0.0939019 0.398499 0.994627
166 1 0.151777 0.440406 0.99885
167 1 0.146148 0.395993 0.0509187
168 1 0.0955484 0.44882 0.0527551
169 1 0.202123 0.396145 0.997099
170 1 0.247873 0.444164 0.993379
171 1 0.251586 0.393671 0.042139
172 1 0.20351 0.440369 0.0473169
173 1 0.300863 0.387349 0.995034
174 1 0.348541 0.443869 0.998118
175 1 0.346874 0.381966 0.0490088
176 1 0.297679 0.445624 0.043542
177 1 0.400476 0.394011 0.996477
178 1 0.452029 0.449457 0.987571
179 1 0.444732 0.393074 0.0464169
180 1 0.400911 0.438534 0.0408292
181 1 0.502428 0.39066 0.999036
182 1 0.553525 0.447714 0.993845
183 1 0.554345 0.394519 0.0535909
184 1 0.505054 0.44883 0.0417229
185 1 0.597517 0.39678 0.999013
186 1 0.655517 0.452311 0.00104474
187 1 0.645762 0.397208 0.0433807
188 1 0.605595 0.453173 0.0484282
189 1 0.69958 0.399892 0.00298116
190 1 0.750106 0.445327 0.00883627
191 1 0.749717 0.401439 0.0543194
192 1 0.700446 0.451659 0.0502982
193 1 0.803091 0.400159 0.998288
194 1 0.850336 0.44808 0.00435567
195 1 0.848188 0.399103 0.053674
196 1 0.801994 0.4551 0.0451593
197 1 0.897179 0.401534 0.995785
198 1 0.949899 0.446119 0.995107
199 1 0.946191 0.401295 0.0467544
200 1 0.902136 0.446102 0.0398262
201 1 0.993252 0.496103 0.999739
202 1 0.0521926 0.54282 0.00244978
203 1 0.0483505 0.493741 0.0472766
204 1 0.999266 0.544196 0.0512369
205 1 0.102014 0.498049 0.00123061
206 1 0.149449 0.541794 0.994279
207 1 0.144881 0.500694 0.0527863
208 1 0.095118 0.551336 0.0525352
209 1 0.200127 0.487843 0.995633
210 1 0.247053 0.535438 0.998737
211 1 0.250877 0.492899 0.0474779
212 1 0.194134 0.539641 0.0465696
213 1 0.304311 0.494067 0.998682
214 1 0.353895 0.553592 0.993054
215 1 0.34711 0.49218 0.0437777
216 1 0.306404 0.546338 0.0448348
217 1 0.403713 0.490926 0.00101044
218 1 0.445974 0.550004 0.990425
219 1 0.452516 0.497628 0.0427656
220 1 0.402876 0.5452 0.0454152
221 1 0.497849 0.504425 0.992615
222 1 0.549682 0.552304 0.00579997
223 1 0.555513 0.499696 0.0470357
224 1 0.503083 0.545912 0.0498265
225 1 0.600991 0.500457 -1.96498e-05
226 1 0.653292 0.556258 0.996155
227 1 0.648978 0.500798 0.0473697
228 1 0.600788 0.551105 0.0442663
229 1 0.70156 0.493968 0.996616
230 1 0.740834 0.551861 0.997884
231 1 0.743429 0.498796 0.0568804
232 1 0.701489 0.547964 0.0504108
233 1 0.793511 0.501374 1.00042
234 1 0.846031 0.563376 0.00513744
235 1 0.855468 0.500055 0.0459665
236 1 0.796408 0.552785 0.0455303
237 1 0.90142 0.495668 0.997136
238 1 0.950325 0.550679 0.0030136
239 1 0.948198 0.500377 0.0484384
240 1 0.895251 0.552818 0.0468808
241 1 0.0013392 0.588159 0.00513389
242 1 0.0543586 0.650976 0.999329
243 1 0.0528946 0.605711 0.0486608
244 1 0.998406 0.643107 0.0460608
245 1 0.0938001 0.596517 0.00101548
246 1 0.141497 0.642747 0.00170012
247 1 0.148063 0.592599 0.0555151
248 1 0.101022 0.652055 0.0551071
249 1 0.193021 0.593655 1.00039
250 1 0.240123 0.650174 0.997769
251 1 0.244038 0.601838 0.0496483
252 1 0.196379 0.648046 0.0485649
253 1 0.290694 0.594382 0.994041
254 1 0.347712 0.636882 0.994867
255 1 0.360194 0.600933 0.049839
256 1 0.295 0.644798 0.0479758
257 1 0.405275 0.605316 0.996756
258 1 0.450722 0.655247 0.000627301
259 1 0.456305 0.597446 0.0430585
260 1 0.409644 0.651949 0.0541101
261 1 0.504682 0.595375 0.00284823
262 1 0.549467 0.650002 0.00446618
263 1 0.54692 0.601059 0.0494612
264 1 0.499724 0.65104 0.0460124
265 1 0.604293 0.604608 0.99791
266 1 0.65003 0.650593 0.987085
267 1 0.647165 0.60286 0.0558094
268 1 0.59268 0.649807 0.0517064
269 1 0.698292 0.599252 0.991558
270 1 0.742648 0.651783 0.994831
271 1 0.746192 0.602487 0.0489328
272 1 0.703266 0.64924 0.0489508
273 1 0.789208 0.603879 0.995796
274 1 0.845508 0.65151 0.999004
275 1 0.848895 0.607309 0.0493607
276 1 0.803364 0.65593 0.0460142
277 1 0.904356 0.602347 0.00202731
278 1 0.949558 0.648823 0.996441
279 1 0.95425 0.594843 0.0559558
280 1 0.905628 0.656376 0.0447795
281 1 0.989619 0.70197 0.999516
282 1 0.0471779 0.747457 0.00188234
283 1 0.0559022 0.70154 0.0456557
284 1 0.999939 0.750318 0.050422
285 1 0.0994211 0.69935 0.00060074
286 1 0.14576 0.748496 0.995785
287 1 0.141294 0.700289 0.053998
288 1 0.099522 0.749233 0.0430293
289 1 0.195189 0.695592 0.996894
290 1 0.256786 0.745072 0.986824
291 1 0.24254 0.696884 0.0458827
292 1 0.195975 0.749041 0.040697
293 1 0.295711 0.690242 0.00428058
294 1 0.349019 0.748148 0.00555134
295 1 0.34464 0.698278 0.051466
296 1 0.292256 0.743184 0.0456359
297 1 0.402251 0.702825 0.0031226
298 1 0.457029 0.752345 0.00343389
299 1 0.453685 0.701993 0.0475654
300 1 0.393512 0.750156 0.0492519
301 1 0.496728 0.701524 0.993362
302 1 0.539837 0.759089 0.00181602
303 1 0.542613 0.703 0.0511798
304 1 0.494628 0.758322 0.0508316
305 1 0.59466 0.697749 0.00443471
306 1 0.644011 0.749416 0.999914
307 1 0.638107 0.693131 0.0544876
308 1 0.592824 0.750307 0.0461293
309 1 0.700108 0.698871 0.994216
310 1 0.751586 0.749142 0.995539
311 1 0.741237 0.700977 0.0415606
312 1 0.692589 0.74885 0.0423692
313 1 0.797808 0.700883 0.000519061
314 1 0.848815 0.750098 0.996706
315 1 0.852077 0.701868 0.0449032
316 1 0.800236 0.749654 0.0498587
317 1 0.901302 0.705537 0.00495343
318 1 0.949302 0.751108 1.00131
319 1 0.950074 0.702957 0.0498445
320 1 0.897162 0.745427 0.0546348
321 1 0.992252 0.798094 0.999277
322 1 0.0504599 0.851905 0.993452
323 1 0.045398 0.799518 0.0438179
324 1 0.999189 0.848953 0.0429266
325 1 0.0928219 0.803527 0.997449
326 1 0.150652 0.847681 0.996289
327 1 0.143759 0.804328 0.039669
328 1 0.0929182 0.849335 0.0469168
329 1 0.197445 0.795137 0.990801
330 1 0.24634 0.8456 0.982799
331 1 0.246979 0.792424 0.037726
332 1 0.19879 0.848316 0.0405272
333 1 0.299459 0.79512 0.990946
334 1 0.349338 0.843365 0.991244
335 1 0.347199 0.804697 0.047738
336 1 0.294128 0.843928 0.0420138
337 1 0.398795 0.798819 0.00850455
338 1 0.445037 0.85068 1.00009
339 1 0.449609 0.805353 0.0490358
340 1 0.393764 0.848387 0.0488484
341 1 0.498566 0.803653 0.000916502
342 1 0.555368 0.847077 0.00458864
343 1 0.54741 0.802871 0.0509285
344 1 0.49839 0.849699 0.0524573
345 1 0.602501 0.801044 0.00950283
346 1 0.654528 0.850199 0.000329815
347 1 0.652927 0.803943 0.0504996
348 1 0.603761 0.850743 0.0456337
349 1 0.701984 0.793819 0.992048
350 1 0.746525 0.85514 0.981529
351 1 0.749787 0.799637 0.0453422
352 1 0.708419 0.848095 0.0372698
353 1 0.799816 0.797551 0.997906
354 1 0.843042 0.854092 -0.000439344
355 1 0.848611 0.800609 0.0464425
356 1 0.796237 0.85436 0.0425616
357 1 0.89695 0.789965 0.00712727
358 1 0.947621 0.858277 0.994794
359 1 0.95011 0.802753 0.0518803
360 1 0.899285 0.855541 0.0409367
361 1 0.99983 0.900549 0.994182
362 1 0.0436111 0.949174 0.00216285
363 1 0.0445342 0.899929 0.0448616
364 1 0.988294 0.95534 0.0564402
365 1 0.0938181 0.896292 0.99311
366 1 0.134739 0.953513 0.99201
367 1 0.144936 0.893141 0.0463069
368 1 0.098422 0.94619 0.0493916
369 1 0.192586 0.897052 0.998506
370 1 0.238847 0.953622 0.992803
371 1 0.254426 0.894739 0.0328394
372 1 0.18958 0.946495 0.0478667
373 1 0.294431 0.901499 0.981594
374 1 0.340164 0.948768 0.990017
375 1 0.3388 0.893438 0.0300916
376 1 0.302256 0.948912 0.0494252
377 1 0.392697 0.892261 0.990037
378 1 0.454441 0.942623 0.00897246
379 1 0.446191 0.895024 0.0553746
380 1 0.387162 0.932774 0.0413155
381 1 0.49339 0.890913 0.00184231
382 1 0.542255 0.949322 0.994907
383 1 0.54584 0.89965 0.0463459
384 1 0.500921 0.951876 0.0500529
385 1 0.596855 0.896699 -0.00017528
386 1 0.639483 0.945155 0.992033
387 1 0.640788 0.90436 0.0496626
388 1 0.587846 0.951559 0.0417428
389 1 0.695453 0.903836 0.994022
390 1 0.750163 0.956135 0.99617
391 1 0.73869 0.912432 0.0480749
392 1 0.690445 0.948353 0.0383122
393 1 0.798031 0.900143 0.99376
394 1 0.848014 0.945526 0.00164468
395 1 0.844244 0.901275 0.0471534
396 1 0.800434 0.952467 0.0447226
397 1 0.899288 0.904322 0.99711
398 1 0.945617 0.958441 0.00167603
399 1 0.952894 0.901965 0.0409451
400 1 0.89712 0.957181 0.0509493
401 1 0.991716 0.007036 0.097347
402 1 0.0444209 0.0537494 0.0946755
403 1 0.0456491 0.00133555 0.142288
404 1 1.00049 0.0548207 0.149994
405 1 0.0929921 0.0012672 0.0924187
406 1 0.141133 0.0517476 0.0994429
407 1 0.145658 0.000936954 0.141278
408 1 0.0972637 0.0498384 0.146825
409 1 0.199404 0.997508 0.0937397
410 1 0.240106 0.0536288 0.0891175
411 1 0.24704 0.000570355 0.135553
412 1 0.19939 0.0479188 0.148912
413 1 0.300543 0.00510885 0.0910152
414 1 0.354938 0.0453767 0.100687
415 1 0.343552 0.996791 0.144331
416 1 0.299185 0.0463568 0.144988
417 1 0.399859 0.995445 0.0992205
418 1 0.452255 0.0541566 0.100858
419 1 0.450676 0.0018347 0.147707
420 1 0.400191 0.0504561 0.144924
421 1 0.506492 0.996154 0.0998343
422 1 0.554768 0.04843 0.0974459
423 1 0.554557 0.00221029 0.149224
424 1 0.499396 0.0492001 0.149684
425 1 0.601305 0.992497 0.0986771
426 1 0.652997 0.0464643 0.0958435
427 1 0.650607 0.998543 0.14388
428 1 0.607348 0.0476525 0.146317
429 1 0.707197 0.997829 0.0984641
430 1 0.756634 0.0525989 0.0958697
431 1 0.752457 0.99807 0.139707
432 1 0.701661 0.0522204 0.138397
433 1 0.803583 0.00199347 0.0967447
434 1 0.846278 0.0543483 0.0998449
435 1 0.850044 -0.000204211 0.14147
436 1 0.8016 0.0507346 0.144225
437 1 0.903582 0.000942938 0.0983061
438 1 0.946742 0.0519731 0.0938635
439 1 0.960325 0.00429741 0.155327
440 1 0.89673 0.0443665 0.141341
441 1 0.995532 0.0919589 0.0892707
442 1 0.0445055 0.143244 0.097535
443 1 0.05186 0.100037 0.146898
444 1 0.00114986 0.147074 0.15406
445 1 0.0953841 0.0964348 0.0977894
446 1 0.150429 0.151704 0.101359
447 1 0.147759 0.0990348 0.146897
448 1 0.10361 0.144496 0.145228
449 1 0.197395 0.0968589 0.104785
450 1 0.244475 0.154099 0.0939381
451 1 0.247294 0.0907 0.148081
452 1 0.198625 0.146737 0.150143
453 1 0.293547 0.0983908 0.0961969
454 1 0.345812 0.146461 0.0910507
455 1 0.344293 0.103064 0.150482
456 1 0.298251 0.147544 0.141045
457 1 0.391648 0.0950604 0.0839309
458 1 0.450497 0.13186 0.0924521
459 1 0.449531 0.0919418 0.151399
460 1 0.399386 0.140717 0.152412
461 1 0.503579 0.0934444 0.0986401
462 1 0.551384 0.150596 0.101008
463 1 0.553923 0.0958987 0.145467
464 1 0.497594 0.140889 0.150038
465 1 0.60242 0.096913 0.100342
466 1 0.644746 0.146757 0.0903636
467 1 0.650343 0.0984506 0.151744
468 1 0.60482 0.144528 0.143602
469 1 0.692544 0.101244 0.0975841
470 1 0.742828 0.149842 0.097678
471 1 0.751206 0.099117 0.137875
472 1 0.68943 0.151955 0.147594
473 1 0.799322 0.100054 0.0955817
474 1 0.842771 0.152637 0.0925453
475 1 0.843812 0.103328 0.146911
476 1 0.798908 0.155909 0.14703
477 1 0.898956 0.101219 0.0937412
478 1 0.952393 0.146098 0.0990123
479 1 0.951414 0.103474 0.148497
480 1 0.899599 0.145614 0.146885
481 1 0.00241445 0.198161 0.100081
482 1 0.0434539 0.249085 0.0982341
483 1 0.0484244 0.190357 0.147916
484 1 0.995191 0.254781 0.142928
485 1 0.102131 0.192239 0.0996068
486 1 0.144308 0.250765 0.100507
487 1 0.150521 0.193978 0.147677
488 1 0.0860357 0.253908 0.150064
489 1 0.193374 0.200875 0.096972
490 1 0.251194 0.236656 0.10101
491 1 0.243061 0.194617 0.145982
492 1 0.195469 0.241874 0.148391
493 1 0.299008 0.19186 0.0959809
494 1 0.353572 0.241356 0.0941657
495 1 0.349391 0.189011 0.153569
496 1 0.311517 0.245901 0.142964
497 1 0.398005 0.18537 0.105028
498 1 0.444859 0.242345 0.102508
499 1 0.448264 0.194917 0.145556
500 1 0.393351 0.244508 0.144536
501 1 0.505251 0.201534 0.101643
502 1 0.563684 0.249724 0.100754
503 1 0.553121 0.201158 0.144351
504 1 0.499757 0.244849 0.149696
505 1 0.599381 0.194974 0.0946613
506 1 0.64356 0.249048 0.094261
507 1 0.64539 0.2036 0.147014
508 1 0.598194 0.253762 0.156688
509 1 0.687118 0.203463 0.0988476
510 1 0.747532 0.257366 0.108227
511 1 0.740611 0.202681 0.142241
512 1 0.696019 0.251395 0.149128
513 1 0.794133 0.201692 0.0964892
514 1 0.850938 0.250345 0.103296
515 1 0.850515 0.204416 0.151738
516 1 0.790812 0.246302 0.152507
517 1 0.892683 0.197408 0.0903629
518 1 0.954573 0.247884 0.0915513
519 1 0.952302 0.200939 0.139896
520 1 0.902833 0.245094 0.142538
521 1 0.997179 0.301766 0.0949447
522 1 0.0421807 0.355259 0.102986
523 1 0.0426465 0.304118 0.145085
524 1 0.994173 0.353268 0.142607
525 1 0.0939062 0.302518 0.0992708
526 1 0.148517 0.353299 0.102779
527 1 0.141126 0.293298 0.151207
528 1 0.096105 0.354098 0.144275
529 1 0.195796 0.288009 0.106441
530 1 0.24831 0.349159 0.101167
531 1 0.248878 0.294928 0.158267
532 1 0.200728 0.347333 0.148788
533 1 0.30953 0.299002 0.103125
534 1 0.349145 0.347449 0.106315
535 1 0.352587 0.295811 0.151697
536 1 0.303087 0.347615 0.153243
537 1 0.395765 0.292313 0.0974413
538 1 0.447562 0.342702 0.0939266
539 1 0.447727 0.29133 0.148725
540 1 0.413687 0.352058 0.147154
541 1 0.499804 0.296488 0.0996799
542 1 0.551998 0.346927 0.0989588
543 1 0.550904 0.300695 0.145184
544 1 0.496888 0.347827 0.14558
545 1 0.606545 0.299043 0.0999548
546 1 0.650987 0.356873 0.0934278
547 1 0.647889 0.303213 0.156323
548 1 0.610248 0.352963 0.151004
549 1 0.687417 0.301307 0.103352
550 1 0.749701 0.355895 0.105315
551 1 0.743604 0.306308 0.150268
552 1 0.699316 0.353216 0.145732
553 1 0.796814 0.298987 0.107666
554 1 0.855446 0.357117 0.103408
555 1 0.845282 0.299409 0.152902
556 1 0.804038 0.353259 0.154103
557 1 0.901969 0.294474 0.0975069
558 1 0.939471 0.349185 0.0993648
559 1 0.947827 0.296052 0.140015
560 1 0.901946 0.353921 0.154746
561 1 0.993835 0.395367 0.0960542
562 1 0.0412159 0.442694 0.102739
563 1 0.0463142 0.400251 0.150187
564 1 0.998835 0.446878 0.153199
565 1 0.0993783 0.406174 0.107177
566 1 0.139108 0.455414 0.0997658
567 1 0.148284 0.402262 0.153531
568 1 0.0954178 0.456636 0.153131
569 1 0.188441 0.404701 0.102938
570 1 0.250071 0.44612 0.0938113
571 1 0.258441 0.399228 0.164671
572 1 0.201889 0.447704 0.15083
573 1 0.299336 0.39725 0.10939
574 1 0.350905 0.437296 0.0863805
575 1 0.354106 0.404725 0.155805
576 1 0.299675 0.449394 0.155991
577 1 0.403058 0.397332 0.102951
578 1 0.446748 0.449274 0.0906628
579 1 0.455688 0.406221 0.141492
580 1 0.405468 0.45377 0.149804
581 1 0.504029 0.399781 0.0940279
582 1 0.556075 0.448228 0.0938618
583 1 0.554678 0.402268 0.145476
584 1 0.509366 0.443677 0.14339
585 1 0.59638 0.395472 0.0981264
586 1 0.650995 0.441326 0.093443
587 1 0.656075 0.403942 0.149596
588 1 0.606828 0.457505 0.144952
589 1 0.704502 0.401596 0.0998543
590 1 0.751847 0.44921 0.0965747
591 1 0.74948 0.405488 0.155883
592 1 0.6961 0.457047 0.138369
593 1 0.805285 0.401961 0.100591
594 1 0.852866 0.4479 0.0961878
595 1 0.851822 0.40682 0.146805
596 1 0.806935 0.456318 0.149068
597 1 0.903135 0.401706 0.0910233
598 1 0.949284 0.455853 0.0941722
599 1 0.947631 0.402608 0.150446
600 1 0.90024 0.449153 0.149622
601 1 0.998387 0.505274 0.109405
602 1 0.0489763 0.549974 0.0948943
603 1 0.0467074 0.505801 0.155068
604 1 0.998703 0.549887 0.158647
605 1 0.0886016 0.501011 0.101015
606 1 0.142691 0.547342 0.099842
607 1 0.148685 0.501924 0.150188
608 1 0.0968937 0.549397 0.146789
609 1 0.194909 0.487392 0.0883069
610 1 0.254076 0.546523 0.101686
611 1 0.247788 0.496326 0.145217
612 1 0.201344 0.546177 0.156451
613 1 0.301179 0.493229 0.0998996
614 1 0.352887 0.548597 0.0906562
615 1 0.345835 0.4948 0.147783
616 1 0.298409 0.545953 0.154242
617 1 0.400551 0.500801 0.0899985
618 1 0.452564 0.536623 0.0972507
619 1 0.452739 0.494238 0.148762
620 1 0.400749 0.548071 0.138939
621 1 0.509627 0.497281 0.0932749
622 1 0.549347 0.550504 0.0964848
623 1 0.551851 0.498863 0.142132
624 1 0.507075 0.548788 0.145865
625 1 0.60044 0.499768 0.0998757
626 1 0.650148 0.548566 0.0909665
627 1 0.650387 0.503894 0.140726
628 1 0.594302 0.543952 0.142895
629 1 0.698761 0.505343 0.0984256
630 1 0.750789 0.554626 0.097232
631 1 0.748938 0.502574 0.138132
632 1 0.700677 0.546676 0.151988
633 1 0.797007 0.508773 0.0926242
634 1 0.850322 0.553182 0.0995915
635 1 0.859862 0.498246 0.14804
636 1 0.805476 0.553229 0.145537
637 1 0.904295 0.495423 0.101244
638 1 0.956542 0.551929 0.102584
639 1 0.949886 0.494946 0.15458
640 1 0.906069 0.545442 0.144146
641 1 0.00708834 0.602166 0.0936691
642 1 0.047303 0.652009 0.0942559
643 1 0.049099 0.599773 0.145725
644 1 0.000550583 0.652413 0.143464
645 1 0.0998002 0.599136 0.102429
646 1 0.146605 0.644539 0.0946912
647 1 0.149202 0.596882 0.148214
648 1 0.0984043 0.649562 0.138871
649 1 0.193949 0.595862 0.10114
650 1 0.253788 0.645166 0.104156
651 1 0.25053 0.592444 0.15235
652 1 0.201349 0.65029 0.138341
653 1 0.307077 0.60782 0.0966775
654 1 0.360904 0.648623 0.105322
655 1 0.350461 0.59582 0.145857
656 1 0.299679 0.644424 0.150992
657 1 0.412542 0.597897 0.0940919
658 1 0.456943 0.64665 0.098978
659 1 0.449947 0.590229 0.14986
660 1 0.40952 0.648459 0.150176
661 1 0.494863 0.596025 0.101514
662 1 0.542531 0.649929 0.098679
663 1 0.550679 0.595693 0.142002
664 1 0.493436 0.646945 0.149711
665 1 0.599096 0.602386 0.0978192
666 1 0.651435 0.658471 0.107854
667 1 0.649536 0.600343 0.144391
668 1 0.598141 0.648577 0.153303
669 1 0.701834 0.594797 0.103834
670 1 0.755275 0.644791 0.0978306
671 1 0.749991 0.594904 0.149491
672 1 0.704738 0.642542 0.143881
673 1 0.799104 0.602678 0.0967718
674 1 0.847775 0.655537 0.0902916
675 1 0.855088 0.608601 0.136883
676 1 0.799221 0.64312 0.15142
677 1 0.900483 0.602161 0.0949795
678 1 0.950274 0.646648 0.0947954
679 1 0.953354 0.603591 0.142499
680 1 0.901293 0.65256 0.149274
681 1 0.989546 0.705136 0.0991684
682 1 0.046326 0.754546 0.0929744
683 1 0.0498496 0.709792 0.144619
684 1 0.998769 0.754927 0.148429
685 1 0.100324 0.704435 0.102073
686 1 0.153971 0.75531 0.086223
687 1 0.148981 0.712151 0.151537
688 1 0.0941714 0.755713 0.1505
689 1 0.193439 0.70646 0.0861449
690 1 0.248901 0.751123 0.0925276
691 1 0.248857 0.704983 0.150457
692 1 0.199336 0.759111 0.144257
693 1 0.293007 0.697963 0.0951409
694 1 0.341317 0.751898 0.0892078
695 1 0.351883 0.697316 0.148824
696 1 0.307422 0.746727 0.147292
697 1 0.401792 0.707252 0.09567
698 1 0.448489 0.7513 0.0955391
699 1 0.451017 0.703102 0.142762
700 1 0.397147 0.75128 0.146201
701 1 0.497691 0.705225 0.0957365
702 1 0.54592 0.754291 0.0966816
703 1 0.537421 0.701667 0.149653
704 1 0.499058 0.751617 0.152531
705 1 0.597402 0.699768 0.0996963
706 1 0.64611 0.754786 0.105395
707 1 0.643503 0.704498 0.154825
708 1 0.589884 0.741842 0.149266
709 1 0.698063 0.699258 0.0952334
710 1 0.747135 0.741512 0.0998174
711 1 0.747457 0.690158 0.144763
712 1 0.697873 0.741466 0.155528
713 1 0.794701 0.700086 0.0965703
714 1 0.842542 0.752922 0.100687
715 1 0.847309 0.701026 0.142658
716 1 0.797686 0.749569 0.146819
717 1 0.90318 0.703103 0.102257
718 1 0.947025 0.752886 0.0993199
719 1 0.953199 0.688852 0.154732
720 1 0.898271 0.745234 0.148749
721 1 0.997058 0.798281 0.0969599
722 1 0.0491953 0.843867 0.102726
723 1 0.0470259 0.797207 0.151437
724 1 0.994867 0.850251 0.153472
725 1 0.0966816 0.800405 0.0874042
726 1 0.14833 0.848328 0.0940016
727 1 0.147781 0.795219 0.14246
728 1 0.0945578 0.848515 0.149491
729 1 0.200096 0.807357 0.0974438
730 1 0.255233 0.855533 0.0963329
731 1 0.256242 0.805271 0.146414
732 1 0.200948 0.848796 0.146554
733 1 0.292661 0.806951 0.0952764
734 1 0.348786 0.843257 0.0972169
735 1 0.343754 0.807863 0.150255
736 1 0.29978 0.851141 0.146588
737 1 0.394826 0.797819 0.0952182
738 1 0.449346 0.84713 0.101277
739 1 0.446733 0.798551 0.150382
740 1 0.397129 0.848946 0.143564
741 1 0.500252 0.801096 0.101408
742 1 0.544948 0.847894 0.0976289
743 1 0.54937 0.808599 0.149664
744 1 0.4979 0.851968 0.149995
745 1 0.593622 0.796411 0.099159
746 1 0.647117 0.846515 0.0961885
747 1 0.64854 0.802423 0.150021
748 1 0.598904 0.856258 0.137496
749 1 0.69969 0.796131 0.09672
750 1 0.754213 0.846181 0.0903113
751 1 0.76081 0.798086 0.139213
752 1 0.696915 0.855756 0.142955
753 1 0.803207 0.800126 0.0923209
754 1 0.848234 0.850795 0.0960482
755 1 0.849155 0.803995 0.138907
756 1 0.802452 0.850112 0.142552
757 1 0.89899 0.79655 0.0938626
758 1 0.950152 0.850106 0.0973351
759 1 0.944942 0.801182 0.147299
760 1 0.902304 0.852648 0.148827
761 1 0.997042 0.900249 0.0965588
762 1 0.0452141 0.950206 0.0898695
763 1 0.0505178 0.896877 0.149232
764 1 0.998646 0.943365 0.15009
765 1 0.0993809 0.892744 0.0917276
766 1 0.141804 0.944165 0.0938364
767 1 0.150605 0.894733 0.13765
768 1 0.0954893 0.94295 0.14876
769 1 0.199187 0.890672 0.100876
770 1 0.245806 0.939359 0.0943142
771 1 0.245725 0.898651 0.145017
772 1 0.198646 0.949395 0.13683
773 1 0.30722 0.898544 0.0975815
774 1 0.352202 0.949235 0.0982872
775 1 0.350631 0.893842 0.149224
776 1 0.295692 0.947907 0.144679
777 1 0.390406 0.892934 0.0943127
778 1 0.448499 0.953754 0.102869
779 1 0.445687 0.898193 0.136142
780 1 0.395374 0.948841 0.152654
781 1 0.496857 0.89501 0.0986658
782 1 0.548448 0.952121 0.0972955
783 1 0.546488 0.898097 0.141626
784 1 0.49892 0.943867 0.144823
785 1 0.588991 0.90315 0.0873831
786 1 0.650371 0.955616 0.0921422
787 1 0.651867 0.8967 0.139641
788 1 0.601053 0.94414 0.136218
789 1 0.698188 0.888735 0.0879285
790 1 0.758112 0.949837 0.098683
791 1 0.746874 0.897489 0.133362
792 1 0.701929 0.946137 0.134597
793 1 0.802062 0.89894 0.0997579
794 1 0.84727 0.94474 0.0944141
795 1 0.855148 0.899259 0.142336
796 1 0.808269 0.951074 0.146957
797 1 0.895617 0.90714 0.0895056
798 1 0.945215 0.950145 0.101406
799 1 0.947544 0.903838 0.150713
800 1 0.899917 0.955951 0.147988
801 1 0.0033042 -0.000549573 0.208265
802 1 0.0528871 0.0514509 0.192912
803 1 0.0539844 0.00293847 0.245254
804 1 0.00886063 0.0506358 0.249888
805 1 0.0938128 0.997975 0.194813
806 1 0.144715 0.0434924 0.188657
807 1 0.150159 0.00500691 0.248055
808 1 0.0954146 0.048384 0.245364
809 1 0.188957 0.999242 0.19519
810 1 0.252868 0.043193 0.193128
811 1 0.246494 0.994204 0.244692
812 1 0.202885 0.0430559 0.241827
813 1 0.294349 0.996162 0.190037
814 1 0.341648 0.0531103 0.190599
815 1 0.346844 0.994115 0.230913
816 1 0.295595 0.0449164 0.246214
817 1 0.401917 0.00118911 0.194348
818 1 0.449207 0.0454664 0.19808
819 1 0.447808 0.998492 0.24288
820 1 0.394498 0.0439534 0.246422
821 1 0.50148 0.996685 0.197216
822 1 0.546895 0.0490354 0.20178
823 1 0.556403 0.992584 0.237922
824 1 0.499483 0.036483 0.247195
825 1 0.606817 0.986015 0.192786
826 1 0.658351 0.0453385 0.19209
827 1 0.649915 0.00101256 0.243314
828 1 0.605001 0.0480022 0.244498
829 1 0.705285 0.993109 0.188727
830 1 0.743366 0.0441722 0.190719
831 1 0.751945 0.998953 0.238006
832 1 0.705641 0.044167 0.251501
833 1 0.804263 0.00271871 0.184531
834 1 0.843009 0.053116 0.194212
835 1 0.854713 0.00524344 0.248703
836 1 0.794423 0.0474879 0.247134
837 1 0.901646 0.00948195 0.199986
838 1 0.953863 0.0583983 0.192605
839 1 0.949432 0.995057 0.253991
840 1 0.893684 0.0586819 0.250293
841 1 0.00860806 0.0980476 0.200314
842 1 0.0554061 0.143379 0.198964
843 1 0.0572065 0.096122 0.246034
844 1 0.00667475 0.136757 0.248249
845 1 0.0959878 0.0986711 0.197755
846 1 0.150543 0.141992 0.19614
847 1 0.150929 0.0945465 0.244118
848 1 0.101748 0.140423 0.24687
849 1 0.196019 0.0982328 0.193965
850 1 0.24362 0.144015 0.190006
851 1 0.247821 0.0936305 0.247607
852 1 0.207163 0.1433 0.244149
853 1 0.289377 0.0960373 0.193954
854 1 0.3406 0.143379 0.197312
855 1 0.350781 0.0902941 0.240586
856 1 0.298856 0.145703 0.243094
857 1 0.403229 0.0849138 0.19732
858 1 0.446443 0.144449 0.198291
859 1 0.444142 0.0987856 0.247473
860 1 0.391873 0.142355 0.246174
861 1 0.504736 0.0949932 0.194954
862 1 0.557525 0.150293 0.188014
863 1 0.548289 0.0963718 0.243825
864 1 0.4958 0.141307 0.247768
865 1 0.598517 0.0940054 0.196072
866 1 0.643557 0.147747 0.198979
867 1 0.653157 0.0924056 0.24611
868 1 0.608138 0.143926 0.249583
869 1 0.70516 0.101188 0.187866
870 1 0.744181 0.153406 0.190863
871 1 0.75006 0.101213 0.249936
872 1 0.69186 0.149044 0.247054
873 1 0.791442 0.0983183 0.193008
874 1 0.83697 0.155264 0.199626
875 1 0.844646 0.0968729 0.244588
876 1 0.791146 0.149409 0.243847
877 1 0.891595 0.100355 0.19976
878 1 0.950907 0.14012 0.204731
879 1 0.951022 0.0974054 0.250974
880 1 0.901919 0.14807 0.247066
881 1 0.991623 0.192724 0.199729
882 1 0.0415834 0.241847 0.193309
883 1 0.0595317 0.186055 0.245596
884 1 -0.000342876 0.249492 0.246066
885 1 0.106553 0.195822 0.200555
886 1 0.146752 0.243069 0.192677
887 1 0.152189 0.191247 0.244257
888 1 0.100528 0.25532 0.241841
889 1 0.201217 0.202597 0.200366
890 1 0.254848 0.248113 0.198839