ITEM: TIMESTEP
52300
ITEM: NUMBER OF ATOMS
4000
ITEM: BOX BOUNDS pp pp pp
0.0000000000000000e+00 1.6795961913825074e+01
0.0000000000000000e+00 1.6795961913825074e+01
0.0000000000000000e+00 1.6795961913825074e+01
ITEM: ATOMS id type xs ys zs
1 1 0.18927 0.31398 0.142204
2 1 0.122486 0.0257127 0.828883
3 1 0.978587 0.622934 0.970944
4 1 0.629247 0.0953027 0.214812
5 1 0.0949609 0.924992 0.875995
6 1 0.477788 0.675821 0.841388
7 1 0.0624244 0.785426 0.713085
8 1 0.166419 0.0498834 0.284108
9 1 0.425015 0.239256 0.145799
10 1 0.56918 0.228218 0.75192
11 1 0.0590331 0.151547 0.210459
12 1 0.309986 0.656185 0.798107
13 1 0.274228 0.998717 0.0889272
14 1 0.450872 0.859959 0.919669
15 1 0.606307 0.16146 0.0942838
16 1 0.259536 0.752973 0.018048
17 1 0.670474 0.20505 0.740446
18 1 0.506789 0.0498867 0.678319
19 1 0.566223 0.130484 0.445329
20 1 0.650812 0.175455 0.034225
21 1 0.444761 0.96397 0.191348
22 1 0.653343 0.262505 0.00241677
23 1 0.69574 0.18117 0.91749
24 1 0.837677 0.104572 0.0574546
25 1 0.782495 0.683255 0.0330488
26 1 0.671181 0.341097 0.0734456
27 1 0.818501 0.0834122 0.173241
28 1 0.436012 0.946897 0.733093
29 1 0.1836 0.765219 0.200382
30 1 0.819661 0.941718 0.855733
31 1 0.0659282 0.0210053 0.210743
32 1 0.281508 0.219476 0.0773375
33 1 0.977215 0.949099 0.158853
34 1 0.737735 0.0648314 0.091395
35 1 0.953751 0.765654 0.356487
36 1 0.957646 0.16343 0.0268318
37 1 0.699516 0.53611 0.0571705
38 1 0.429218 0.945882 0.00894214
39 1 0.110266 0.274801 0.612789
40 1 0.818211 0.89552 0.0832669
41 1 0.722073 0.145712 0.836774
42 1 0.991895 0.0151897 0.489868
43 1 0.922722 0.196314 0.238302
44 1 0.307592 0.712153 0.290441
45 1 0.170317 0.0145558 0.145678
46 1 0.651083 0.382509 0.987474
47 1 0.421367 0.665979 0.394027
48 1 0.115514 0.520128 0.264187
49 1 0.311412 0.25248 0.841571
50 1 0.468783 0.916134 0.179417
51 1 0.503747 0.0184317 0.222628
52 1 0.996893 0.365484 0.851785
53 1 0.210955 0.176819 0.00813345
54 1 0.342362 0.755024 0.833594
55 1 0.59742 0.41324 0.392062
56 1 0.367286 0.151141 0.0347089
57 1 0.466126 0.324238 0.181757
58 1 0.652872 0.150483 0.968616
59 1 0.194634 0.25316 0.142186
60 1 0.308573 0.553504 0.0908182
61 1 0.501007 0.529149 0.898366
62 1 0.33867 0.304409 0.993752
63 1 0.406863 0.19919 0.0262628
64 1 0.46666 0.210208 0.734156
65 1 0.378314 0.289196 0.934
66 1 0.490319 0.658305 0.197159
67 1 0.309109 0.458162 0.0807495
68 1 0.883291 0.474756 0.00981098
69 1 0.342021 0.0723156 0.872324
70 1 0.81351 0.10111 0.590928
71 1 0.832774 0.0277619 0.128502
72 1 0.539306 0.070349 0.774768
73 1 0.860743 0.0868952 0.996938
74 1 0.0102049 0.857609 0.091461
75 1 0.791654 0.617269 0.950314
76 1 0.653739 0.9594 0.0351559
77 1 0.701847 0.065388 0.046634
78 1 0.958064 0.776966 0.474284
79 1 0.659636 0.78508 0.036224
80 1 0.533896 0.485528 0.994015
81 1 0.945611 0.0633964 0.948282
82 1 0.99841 0.998018 0.0176548
83 1 0.81394 0.941514 0.320187
84 1 0.18726 0.466439 0.227051
85 1 0.940094 0.892489 0.559639
86 1 0.881261 0.450425 0.856651
87 1 0.569923 0.378167 0.719156
88 1 0.202998 0.0750045 0.0667053
89 1 0.54696 0.857245 0.183979
90 1 0.998477 0.962873 0.950089
91 1 0.978116 0.157724 0.789846
92 1 0.106279 0.446118 0.101093
93 1 0.346777 0.086213 0.813365
94 1 0.16707 0.00659888 0.891651
95 1 0.475072 0.515698 0.743818
96 1 0.634371 0.329239 0.120046
97 1 0.271857 0.184856 0.00300824
98 1 0.622175 0.961603 0.330478
99 1 0.281939 0.854224 0.409071
100 1 0.713142 0.228045 0.790376
101 1 0.596406 0.106694 0.538606
102 1 0.411275 0.0449675 0.985712
103 1 0.923615 0.298294 0.954831
104 1 0.674167 0.234718 0.172194
105 1 0.352195 0.0997658 0.070698
106 1 0.845727 0.18246 0.703135
107 1 0.625492 0.773066 0.388975
108 1 0.780895 0.362864 0.969349
109 1 0.212507 0.661731 0.460436
110 1 0.684315 0.329034 0.0143047
111 1 0.791501 0.623822 0.884567
112 1 0.594678 0.279003 0.986689
113 1 0.0485813 0.0335216 0.049968
114 1 0.716875 0.534496 0.419124
115 1 0.728331 0.078593 0.255869
116 1 0.389773 0.458826 0.338526
117 1 0.183093 0.185942 0.193481
118 1 0.524118 0.142071 0.237969
119 1 0.911932 0.164758 0.406597
120 1 0.599456 0.370949 0.962836
121 1 0.202561 0.441967 0.928463
122 1 0.181678 0.152121 0.840865
123 1 0.173102 0.497105 0.931391
124 1 0.266268 0.675696 0.899686
125 1 0.183937 0.281909 0.0846411
126 1 0.453033 0.421926 0.286393
127 1 0.679916 0.968525 0.517275
128 1 0.269746 0.501777 0.78024
129 1 0.603971 0.194366 0.656794
130 1 0.691519 0.397784 0.0410988
131 1 0.813093 0.478969 0.727082
132 1 0.388863 0.414353 0.951829
133 1 0.0263312 0.0127816 0.626633
134 1 0.996499 0.462636 0.708542
135 1 0.346602 0.371552 0.996291
136 1 0.394839 0.00511472 0.939595
137 1 0.415242 0.195589 0.91934
138 1 0.241136 0.123053 0.0285813
139 1 0.655861 0.350438 0.33006
140 1 0.0673864 0.210466 0.309816
141 1 0.931421 0.171611 0.566139
142 1 0.55972 0.41145 0.0746774
143 1 0.526681 0.34017 0.0799331
144 1 0.790279 0.844958 0.420466
145 1 0.877062 0.26351 0.705655
146 1 0.719485 0.607989 0.297191
147 1 0.376277 0.446772 0.0588064
148 1 0.515483 0.40468 0.817413
149 1 0.0629247 0.229246 0.0779266
150 1 0.826625 0.380666 0.00139991
151 1 0.116339 0.177629 0.206731
152 1 0.0532251 0.436477 0.960888
153 1 0.964288 0.760237 0.206256
154 1 0.545462 0.283541 0.770156
155 1 0.840464 0.431706 0.504458
156 1 0.133648 0.0882538 0.0415502
157 1 0.812402 0.382949 0.0758411
158 1 0.165926 0.44925 0.545287
159 1 0.624149 0.14054 0.894655
160 1 0.637917 0.69271 0.363445
161 1 0.00893172 0.115802 0.0746696
162 1 0.785619 0.288009 0.0798714
163 1 0.0365973 0.491188 0.351432
164 1 0.115313 0.582887 0.923327
165 1 0.0364429 0.641934 0.759125
166 1 0.434277 0.68059 0.933476
167 1 0.00368279 0.201694 0.305259
168 1 0.887216 0.779797 0.609497
169 1 0.220916 0.633284 0.952747
170 1 0.357639 0.646906 0.376523
171 1 0.0691217 0.480896 0.244659
172 1 0.246773 0.202526 0.130401
173 1 0.0774058 0.379532 0.0612267
174 1 0.0571159 0.48192 0.0888063
175 1 0.310205 0.377265 0.345664
176 1 0.192637 0.140079 0.897526
177 1 0.36461 0.510783 0.887888
178 1 0.621293 0.551024 0.292675
179 1 0.401939 0.470727 0.866848
180 1 0.946489 0.24493 0.097523
181 1 0.325086 0.414315 0.0441231
182 1 0.813648 0.202713 0.850481
183 1 0.359549 0.555669 0.11717
184 1 0.444528 0.551979 0.689393
185 1 0.63761 0.788774 0.829577
186 1 0.995339 0.276652 0.0807702
187 1 0.28088 0.384415 0.545456
188 1 0.313403 0.316534 0.0952295
189 1 0.700559 0.271486 0.0428278
190 1 0.0537749 0.214178 0.97944
191 1 0.757002 0.284596 0.230676
192 1 0.877827 0.482887 0.204705
193 1 0.49955 0.134991 0.116187
194 1 0.749671 0.41518 0.0277862
195 1 0.862074 0.60771 0.640277
196 1 0.768091 0.121486 0.0705441
197 1 0.662078 0.280318 0.23359
198 1 0.298994 0.362498 0.126948
199 1 0.172333 0.369095 0.574984
200 1 0.914711 0.70015 0.7344
201 1 0.0502007 0.297477 0.991062
202 1 0.242392 0.790915 0.902282
203 1 0.176296 0.651637 0.909033
204 1 0.149548 0.552322 0.974186
205 1 0.389853 0.784938 0.481506
206 1 0.290827 0.674741 0.953005
207 1 0.880862 0.78155 0.915284
208 1 0.182436 0.895087 0.718468
209 1 0.153333 0.262011 0.3266
210 1 0.406451 0.85846 0.105084
211 1 0.13949 0.287345 0.938628
212 1 0.16044 0.0690806 0.966067
213 1 0.787422 0.13642 0.0138662
214 1 0.599022 0.494902 0.905108
215 1 0.229955 0.403117 0.827881
216 1 0.228046 0.511469 0.920919
217 1 0.227125 0.419241 0.272969
218 1 0.580959 0.612789 0.264764
219 1 0.50735 0.907323 0.295663
220 1 0.276219 0.790476 0.180627
221 1 0.623327 0.475644 0.154482
222 1 0.535234 0.52623 0.0736812
223 1 0.686015 0.649786 0.333235
224 1 0.501607 0.552148 0.599428
225 1 0.508291 0.755052 0.176166
226 1 0.627777 0.985147 0.0881069
227 1 0.298495 0.886357 0.118853
228 1 0.227149 0.46644 0.0947489
229 1 0.30729 0.477651 0.0257092
230 1 0.0732377 0.459755 0.0371499
231 1 0.927764 0.505 0.974128
232 1 0.342197 0.320495 0.151106
233 1 0.894227 0.6769 0.0931376
234 1 0.011148 0.684378 0.0565337
235 1 0.146258 0.416891 0.178369
236 1 0.781826 0.486488 0.845183
237 1 0.868668 0.210654 0.381695
238 1 0.670783 0.800711 0.912034
239 1 0.857137 0.307641 0.864558
240 1 0.62534 0.290583 0.358984
241 1 0.743864 0.00302722 0.0907409
242 1 0.199536 0.0860224 0.864408
243 1 0.350287 0.897766 0.684188
244 1 0.0810792 0.852866 0.867479
245 1 0.777667 0.987041 0.936981
246 1 0.888546 0.708352 0.97983
247 1 0.115794 0.822601 0.642428
248 1 0.825528 0.732746 0.0324569
249 1 0.315058 0.771657 0.323693
250 1 0.0846382 0.639021 0.870788
251 1 0.317044 0.542509 0.00908353
252 1 0.926721 0.93411 0.809452
253 1 0.259154 0.67807 0.37415
254 1 0.269663 0.401171 0.00346369
255 1 0.334843 0.324299 0.355524
256 1 0.50474 0.777521 0.266708
257 1 0.602137 0.467445 0.0725512
258 1 0.134882 0.82057 0.829096
259 1 0.476024 0.684437 0.0228207
260 1 0.333145 0.623378 0.576274
261 1 0.603671 0.989966 0.898014
262 1 0.722058 0.551282 0.278339
263 1 0.141477 0.64283 0.333189
264 1 0.414354 0.548706 0.147799
265 1 0.602164 0.470148 0.803627
266 1 0.147973 0.677511 0.045899
267 1 0.528172 0.615483 0.213845
268 1 0.969108 0.199119 0.137817
269 1 0.205881 0.694807 0.00500783
270 1 0.913717 0.341399 0.0690032
271 1 0.0493223 0.156987 0.332332
272 1 0.0304807 0.438672 0.769403
273 1 0.0514584 0.591101 0.726384
274 1 0.556401 0.938621 0.789842
275 1 0.920743 0.366437 0.854296
276 1 0.707172 0.311695 0.218263
277 1 0.879794 0.575553 0.847376
278 1 0.745672 0.599381 0.817072
279 1 0.615408 0.56644 0.624135
280 1 0.416398 0.881385 0.815935
281 1 0.932408 0.700613 0.179612
282 1 0.368587 0.236963 0.803417
283 1 0.714889 0.726268 0.989718
284 1 0.81191 0.114686 0.511105
285 1 0.934796 0.753922 0.424691
286 1 0.14165 0.359407 0.184508
287 1 0.321435 0.0103405 0.184283
288 1 0.0229625 0.505836 0.629371
289 1 0.556081 0.0116279 0.149088
290 1 0.550875 0.0184703 0.518135
291 1 0.299254 0.961156 0.958798
292 1 0.446392 0.0148246 0.255823
293 1 0.38539 0.581181 0.216463
294 1 0.595316 0.810919 0.179289
295 1 0.612513 0.725365 0.259525
296 1 0.40578 0.995801 0.155246
297 1 0.867816 0.546714 0.228514
298 1 0.41268 0.759869 0.178363
299 1 0.433273 0.858991 0.174995
300 1 0.913939 0.341451 0.774686
301 1 0.382218 0.656076 0.717364
302 1 0.770516 0.691738 0.103925
303 1 0.936267 0.844807 0.0206075
304 1 0.782363 0.0403105 0.670681
305 1 0.202399 0.291891 0.908243
306 1 0.434867 0.860151 0.569934
307 1 0.761641 0.426246 0.933426
308 1 0.456515 0.879976 0.0620975
309 1 0.0142264 0.660472 0.869488
310 1 0.0284131 0.156892 0.115146
311 1 0.190547 0.662846 0.515538
312 1 0.467677 0.530147 0.0800187
313 1 0.804943 0.535272 0.959374
314 1 0.885038 0.846773 0.923641
315 1 0.48979 0.0357619 0.519675
316 1 0.721801 0.682555 0.298595
317 1 0.700269 0.849105 0.747957
318 1 0.582171 0.828776 0.986317
319 1 0.0890004 0.446031 0.912224
320 1 0.489173 0.699741 0.901847
321 1 0.0268923 0.872426 0.633451
322 1 0.63715 0.67204 0.232507
323 1 0.365542 0.510512 0.36591
324 1 0.920617 0.791553 0.1519
325 1 0.055794 0.58912 0.0754493
326 1 0.0352223 0.956107 0.631602
327 1 0.963519 0.710281 0.894508
328 1 0.339107 0.799511 0.0844818
329 1 0.822183 0.567784 0.875128
330 1 0.0746652 0.288394 0.0909697
331 1 0.450076 0.97516 0.936778
332 1 0.538634 0.165106 0.0667573
333 1 0.169918 0.0327381 0.649706
334 1 0.771693 0.781394 0.520685
335 1 0.424486 0.917701 0.135961
336 1 0.10728 0.883737 0.125132
337 1 0.512783 0.939927 0.0842378
338 1 0.0623771 0.937975 0.933177
339 1 0.612593 0.737817 0.436441
340 1 0.109827 0.921581 0.183865
341 1 0.654707 0.690709 0.300736
342 1 0.456888 0.949441 0.0672657
343 1 0.717352 0.761406 0.0495075
344 1 0.803112 0.142257 0.734632
345 1 0.810059 0.513832 0.122737
346 1 0.594568 0.323036 0.0735673
347 1 0.6164 0.0926222 0.0983115
348 1 0.644733 0.891228 0.291779
349 1 0.289905 0.601806 0.16904
350 1 0.452962 0.579084 0.870248
351 1 0.717575 0.712601 0.106068
352 1 0.953657 0.117216 0.475164
353 1 0.335123 0.720665 0.938946
354 1 0.85246 0.634334 0.983343
355 1 0.742958 0.648493 0.995345
356 1 0.784126 0.288179 0.283707
357 1 0.522466 0.153007 0.00937253
358 1 0.893003 0.089484 0.773147
359 1 0.014546 0.734106 0.255946
360 1 0.911301 0.103103 0.0162013
361 1 0.458018 0.640025 0.330972
362 1 0.263667 0.445477 0.539198
363 1 0.217272 0.85805 0.262518
364 1 0.580262 0.081742 0.979099
365 1 0.0228455 0.951602 0.193527
366 1 0.30147 0.87561 0.597428
367 1 0.174064 0.223341 0.0744923
368 1 0.10677 0.295312 0.38316
369 1 0.316394 0.143689 0.995827
370 1 0.100859 0.439161 0.746976
371 1 0.307175 0.0919106 0.0195474
372 1 0.124665 0.523974 0.915337
373 1 0.894824 0.460117 0.755887
374 1 0.735085 0.849843 0.554429
375 1 0.309808 0.525217 0.951541
376 1 0.783675 0.0855141 0.290455
377 1 0.427981 0.750207 0.745914
378 1 0.396386 0.892637 0.890457
379 1 0.429836 0.221174 0.507511
380 1 0.257712 0.819204 0.101813
381 1 0.699706 0.779864 0.110683
382 1 0.498531 0.156444 0.397571
383 1 0.0254489 0.900772 0.409915
384 1 0.525251 0.963536 0.564823
385 1 0.793416 0.910006 0.142812
386 1 0.627947 0.390264 0.86058
387 1 0.576557 0.120369 0.779477
388 1 0.320767 0.0849622 0.357311
389 1 0.723236 0.145229 0.721334
390 1 0.610118 0.225488 0.0582916
391 1 0.441305 0.911894 0.933865
392 1 0.384329 0.0766675 0.62327
393 1 0.060208 0.88267 0.00364637
394 1 0.0350266 0.441258 0.660274
395 1 0.445157 0.366471 0.308468
396 1 0.934871 0.311028 0.82029
397 1 0.377465 0.469668 0.931233
398 1 0.311545 0.7343 0.390705
399 1 0.35565 0.303911 0.24622
400 1 0.707886 0.13807 0.0263924
401 1 0.046317 0.103495 0.846261
402 1 0.195861 0.163158 0.673725
403 1 0.509371 0.669188 0.0791365
404 1 0.677886 0.150424 0.17433
405 1 0.414167 0.0423356 0.446467
406 1 0.490961 0.251449 0.11943
407 1 0.197053 0.826777 0.204237
408 1 0.488875 0.217501 0.335712
409 1 0.94092 0.174214 0.184078
410 1 0.041562 0.51484 0.956478
411 1 0.151278 0.116954 0.298322
412 1 0.442109 0.17829 0.262294
413 1 0.22678 0.806745 0.810574
414 1 0.329159 0.906865 0.917107
415 1 0.704556 0.601798 0.0621421
416 1 0.543529 0.174579 0.347029
417 1 0.682928 0.584496 0.16707
418 1 0.556227 0.74315 0.237904
419 1 0.477796 0.11675 0.279377
420 1 0.310922 0.305272 0.932343
421 1 0.509238 0.0502294 0.044368
422 1 0.752454 0.814679 0.359261
423 1 0.964569 0.661874 0.0129486
424 1 0.61625 0.999472 0.267025
425 1 0.27348 0.145395 0.107228
426 1 0.486056 0.108679 0.934932
427 1 0.735301 0.67978 0.160482
428 1 0.119901 0.746678 0.841108
429 1 0.642628 0.601036 0.205353
430 1 0.258486 0.124073 0.973026
431 1 0.806636 0.686898 0.895186
432 1 0.53824 0.068569 0.93647
433 1 0.651771 0.816979 0.970168
434 1 0.00179719 0.0459864 0.0830026
435 1 0.722998 0.2681 0.146853
436 1 0.843859 0.160961 0.405261
437 1 0.940262 0.948782 0.0269554
438 1 0.609104 0.308222 0.774119
439 1 0.129454 0.850161 0.719973
440 1 0.345333 0.0918072 0.496762
441 1 0.901046 0.12505 0.240832
442 1 0.187134 0.104692 0.139237
443 1 0.932115 0.28589 0.0529462
444 1 0.227682 0.912013 0.236268
445 1 0.0691937 0.186094 0.679979
446 1 0.158274 0.255519 0.877514
447 1 0.654846 0.109874 0.549217
448 1 0.361463 0.201999 0.86776
449 1 0.0181019 0.193094 0.173909
450 1 0.128452 0.0144423 0.315152
451 1 0.94407 0.992663 0.822901
452 1 0.540266 0.718699 0.306615
453 1 0.2568 0.325221 0.910434
454 1 0.396363 0.779833 0.880154
455 1 0.618851 0.853572 0.392389
456 1 0.863559 0.66437 0.876134
457 1 0.040639 0.080202 0.12854
458 1 0.519164 0.313028 0.148945
459 1 0.831358 0.0501385 0.453319
460 1 0.249487 0.431654 0.888921
461 1 0.457139 0.89299 0.40433
462 1 0.0132255 0.0124195 0.138522
463 1 0.504387 0.741481 0.67152
464 1 0.602716 0.884188 0.220058
465 1 0.728415 0.00576428 0.963296
466 1 0.588722 0.403286 0.905894
467 1 0.635532 0.852638 0.0173497
468 1 0.550729 0.14665 0.295396
469 1 0.920753 0.246685 0.995523
470 1 0.629091 0.225491 0.876863
471 1 0.0202332 0.253094 0.025975
472 1 0.953409 0.251594 0.928557
473 1 0.00514799 0.0437808 0.438553
474 1 0.0728179 0.295103 0.678019
475 1 0.74561 0.0133957 0.568402
476 1 0.792259 0.989907 0.881488
477 1 0.750329 0.817114 0.108959
478 1 0.303305 0.270169 0.13802
479 1 0.970907 0.176881 0.524131
480 1 0.512735 0.900376 0.222411
481 1 0.390662 0.469966 0.800968
482 1 0.878268 0.0542313 0.0530815
483 1 0.252446 0.32202 0.104487
484 1 0.0662956 0.213322 0.195185
485 1 0.982816 0.393256 0.0895164
486 1 0.162228 0.477974 0.28942
487 1 0.220175 0.300363 0.0480602
488 1 0.860011 0.695036 0.932444
489 1 0.955718 0.325101 0.901938
490 1 0.224693 0.410742 0.563128
491 1 0.56947 0.0687341 0.825123
492 1 0.390791 0.3112 0.0678664
493 1 0.157556 0.0249688 0.782051
494 1 0.313129 0.946625 0.845152
495 1 0.375378 0.0016415 0.391509
496 1 0.506062 0.449499 0.955175
497 1 0.226705 0.894815 0.000907301
498 1 0.182422 0.0889334 0.244095
499 1 0.076618 0.100327 0.181448
500 1 0.231992 0.999395 0.803529
501 1 0.63748 0.097577 0.320006
502 1 0.262993 0.331761 0.168771
503 1 0.515744 0.451827 0.262195
504 1 0.451682 0.580965 0.947218
505 1 0.670633 0.93024 0.662361
506 1 0.482192 0.558815 0.134777
507 1 0.852129 0.0463137 0.370218
508 1 0.707478 0.116275 0.940058
509 1 0.729802 0.353785 0.0428018
510 1 0.0713475 0.0274402 0.148661
511 1 0.665288 0.223225 0.283756
512 1 0.588432 0.586017 0.55935
513 1 0.447487 0.234975 0.268706
514 1 0.942211 0.443021 0.0732298
515 1 0.227362 0.761938 0.140123
516 1 0.68158 0.392853 0.099458
517 1 0.968895 0.901715 0.991916
518 1 0.988348 0.791201 0.416602
519 1 0.833354 0.444499 0.360729
520 1 0.063172 0.0705323 0.241302
521 1 0.307325 0.316899 0.828844
522 1 0.396115 0.552302 0.334776
523 1 0.715939 0.926518 0.079283
524 1 0.26312 0.566439 0.0332906
525 1 0.0675892 0.407621 0.864164
526 1 0.391487 0.875366 0.969253
527 1 0.0455942 0.00333673 0.940972
528 1 0.272355 0.275072 0.798101
529 1 0.700937 0.35529 0.270525
530 1 0.0780041 0.258345 0.143435
531 1 0.901421 0.173992 0.140752
532 1 0.166977 0.234511 0.931894
533 1 0.41888 0.436826 0.572655
534 1 0.919242 0.939626 0.652322
535 1 0.382076 0.613402 0.0850615
536 1 0.376237 0.294467 0.447105
537 1 0.619625 0.250786 0.773348
538 1 0.947495 0.460822 0.877105
539 1 0.414352 0.887101 0.352128
540 1 0.410178 0.29041 0.186842
541 1 0.509783 0.464685 0.133223
542 1 0.552648 0.874919 0.264277
543 1 0.381803 0.202576 0.352466
544 1 0.240743 0.231168 0.829571
545 1 0.42635 0.379338 0.166034
546 1 0.301469 0.438782 0.864282
547 1 0.502648 0.436621 0.74874
548 1 0.834625 0.244103 0.0536392
549 1 0.808099 0.829934 0.127467
550 1 0.820096 0.158855 0.1653
551 1 0.915503 0.208276 0.812778
552 1 0.909927 0.184444 0.991076
553 1 0.738436 0.016561 0.211237
554 1 0.778644 0.563096 0.377601
555 1 0.86306 0.488376 0.144524
556 1 0.0382257 0.200827 0.736177
557 1 0.206706 0.392443 0.881659
558 1 0.822729 0.315783 0.968578
559 1 0.963689 0.077119 0.316537
560 1 0.613092 0.215982 0.330581
561 1 0.685335 0.987804 0.263947
562 1 0.991014 0.440516 0.0386892
563 1 0.0182098 0.378975 0.0323333
564 1 0.936893 0.0510861 0.26379
565 1 0.0989119 0.956398 0.142844
566 1 0.915233 0.724068 0.370096
567 1 0.467739 0.172902 0.643442
568 1 0.938273 0.383591 0.264018
569 1 0.945992 0.125232 0.96499
570 1 0.107415 0.324343 0.135689
571 1 0.791916 0.493845 0.066542
572 1 0.233692 0.701089 0.116204
573 1 0.277688 0.603301 0.782812
574 1 0.227769 0.218205 0.692406
575 1 0.476864 0.369198 0.791254
576 1 0.276978 0.917153 0.0458089
577 1 0.142021 0.486575 0.995202
578 1 0.446262 0.0871011 0.820076
579 1 0.47962 0.445319 0.830753
580 1 0.428575 0.773767 0.0304617
581 1 0.580551 0.566952 0.990034
582 1 0.678374 0.41549 0.306428
583 1 0.385847 0.529298 0.81333
584 1 0.0460839 0.376054 0.966477
585 1 0.412532 0.390342 0.828317
586 1 0.910371 0.167068 0.913652
587 1 0.328566 0.749489 0.252165
588 1 0.312598 0.339453 0.0417686
589 1 0.602664 0.528742 0.553382
590 1 0.769882 0.338744 0.185359
591 1 0.855568 0.242345 0.887677
592 1 0.70835 0.394086 0.946613
593 1 0.698175 0.297142 0.286951
594 1 0.777087 0.300664 0.343762
595 1 0.564107 0.21438 0.0202545
596 1 0.743617 0.207386 0.279294
597 1 0.0351017 0.520453 0.817909
598 1 0.932464 0.70215 0.315659
599 1 0.858982 0.398875 0.113813
600 1 0.70316 0.935203 0.870766
601 1 0.879177 0.135048 0.101288
602 1 0.173819 0.434095 0.0521545
603 1 0.109035 0.16385 0.311662
604 1 0.370359 0.754085 0.436017
605 1 0.00850368 0.996362 0.900685
606 1 0.952762 0.592739 0.88288
607 1 0.248407 0.661396 0.789318
608 1 0.177988 0.994283 0.947985
609 1 0.976061 0.584585 0.1587
610 1 0.928118 0.403063 0.109051
611 1 0.31567 0.61252 0.233002
612 1 0.288156 0.802132 0.0544893
613 1 0.404486 0.424791 0.00648701
614 1 0.122807 0.471406 0.15236
615 1 0.156812 0.117911 0.093027
616 1 0.170147 0.723227 0.150166
617 1 0.691819 0.337294 0.7723
618 1 0.169238 0.368789 0.812547
619 1 0.276967 0.618101 0.389174
620 1 0.132121 0.0897546 0.155009
621 1 0.497164 0.599923 0.100633
622 1 0.520516 0.354839 0.326682
623 1 0.907249 0.567979 0.07296
624 1 0.63937 0.0727263 0.909208
625 1 0.278139 0.7598 0.707474
626 1 0.878493 0.399435 0.0556921
627 1 0.668062 0.366275 0.917338
628 1 0.289828 0.262353 0.304951
629 1 0.691991 0.657395 0.250809
630 1 0.509643 0.707749 0.251934
631 1 0.0140692 0.686586 0.132404
632 1 0.89083 0.733396 0.122453
633 1 0.0876148 0.282921 0.249072
634 1 0.883861 0.61523 0.0859688
635 1 0.8941 0.440805 0.160084
636 1 0.648768 0.722009 0.905306
637 1 0.794386 0.241287 0.37676
638 1 0.715833 0.566831 0.924773
639 1 0.00741947 0.219805 0.915608
640 1 0.195686 0.567592 0.940043
641 1 0.279753 0.687866 0.0151054
642 1 0.26779 0.838288 0.295998
643 1 0.531478 0.665678 0.0135425
644 1 0.376106 0.599518 0.156377
645 1 0.0929504 0.217696 0.549598
646 1 0.568746 0.530984 0.308731
647 1 0.41668 0.0161502 0.320072
648 1 0.0585545 0.730246 0.0278961
649 1 0.163132 0.858895 0.291691
650 1 0.957612 0.00740638 0.0573706
651 1 0.067098 0.697262 0.845002
652 1 0.217643 0.764893 0.0685347
653 1 0.829114 0.442913 0.822234
654 1 0.0117942 0.315912 0.350263
655 1 0.0920452 0.467259 0.369762
656 1 0.353445 0.618168 0.837001
657 1 0.502625 0.824139 0.888431
658 1 0.764547 0.628702 0.480012
659 1 0.552515 0.230813 0.875457
660 1 0.363314 0.765741 0.0398818
661 1 0.456135 0.527477 0.309616
662 1 0.810514 0.723504 0.380758
663 1 0.577825 0.972675 0.364119
664 1 0.45597 0.73037 0.138391
665 1 0.527105 0.76816 0.339357
666 1 0.993105 0.07008 0.235536
667 1 0.405386 0.606773 0.397265
668 1 0.147179 0.619695 0.963084
669 1 0.795626 0.49753 0.351351
670 1 0.85302 0.575962 0.69337
671 1 0.769188 0.344764 0.0958173
672 1 0.807379 0.26588 0.943966
673 1 0.941374 0.641342 0.17951
674 1 0.132809 0.660348 0.151593
675 1 0.123414 0.324379 0.729108
676 1 0.0392211 0.318784 0.249849
677 1 0.601784 0.744741 0.0629424
678 1 0.920411 0.564839 0.937984
679 1 0.0574873 0.926604 0.356351
680 1 0.0353561 0.644598 0.193984
681 1 0.408286 0.146024 0.325368
682 1 0.956947 0.646042 0.904998
683 1 0.321333 0.913792 0.0055995
684 1 0.641348 0.923096 0.0921301
685 1 0.121601 0.828476 0.978565
686 1 0.15959 0.583222 0.630689
687 1 0.814064 0.850758 0.568405
688 1 0.239313 0.0405412 0.866496
689 1 0.124135 0.50107 0.723421
690 1 0.269647 0.975835 0.0345428
691 1 0.477133 0.965161 0.422578
692 1 0.693684 0.739187 0.173859
693 1 0.466069 0.764852 0.2176
694 1 0.807234 0.678126 0.15173
695 1 0.302286 0.493946 0.333425
696 1 0.434124 0.0722571 0.287656
697 1 0.741264 0.51445 0.146444
698 1 0.135141 0.374644 0.926549
699 1 0.441255 0.643869 0.984344
700 1 0.620448 0.622741 0.41252
701 1 0.528413 0.0983064 0.997385
702 1 0.606181 0.761697 0.885281
703 1 0.562238 0.413812 0.598205
704 1 0.0816922 0.983437 0.0394073
705 1 0.318773 0.71548 0.0877632
706 1 0.841951 0.790346 0.202304
707 1 0.925694 0.632518 0.246708
708 1 0.712787 0.0275185 0.42699
709 1 0.434587 0.671027 0.275923
710 1 0.969539 0.875005 0.392932
711 1 0.390071 0.683546 0.983273
712 1 0.955144 0.857187 0.897737
713 1 0.450732 0.640283 0.88883
714 1 0.880633 0.402066 0.816438
715 1 0.993664 0.437574 0.316155
716 1 0.625867 0.401799 0.530475
717 1 0.64907 0.83281 0.180721
718 1 0.188779 0.602508 0.0633619
719 1 0.220832 0.95203 0.349623
720 1 0.757714 0.946121 0.289691
721 1 0.121301 0.051383 0.210033
722 1 0.46121 0.547578 0.0211189
723 1 0.261741 0.682157 0.236273
724 1 0.948602 0.678302 0.0646686
725 1 0.0329091 0.175127 0.568877
726 1 0.307451 0.2525 0.234756
727 1 0.968424 0.412934 0.207863
728 1 0.839837 0.51191 0.852916
729 1 0.381369 0.774719 0.357525
730 1 0.181207 0.770836 0.833485
731 1 0.592579 0.859556 0.318382
732 1 0.358409 0.720727 0.332833
733 1 0.346538 0.785855 0.186859
734 1 0.550572 0.716808 0.0579779
735 1 0.204163 0.722964 0.39022
736 1 0.190764 0.126287 0.959564
737 1 0.51918 0.661144 0.309807
738 1 0.330832 0.39848 0.268569
739 1 0.568958 0.917103 0.361724
740 1 0.202318 0.926136 0.925428
741 1 0.808966 0.710595 0.555678
742 1 0.629198 0.913508 0.369941
743 1 0.454834 0.803415 0.618864
744 1 0.552395 0.0784967 0.483869
745 1 0.598913 0.946313 0.518333
746 1 0.611056 0.681345 0.136313
747 1 0.493496 0.070885 0.109442
748 1 0.174689 0.808022 0.0452725
749 1 0.655881 0.127465 0.0813413
750 1 0.671392 0.0574346 0.105038
751 1 0.638356 0.576558 0.0892356
752 1 0.44145 0.69817 0.214147
753 1 0.534386 0.0728419 0.154449
754 1 0.0824493 0.165276 0.965787
755 1 0.857522 0.364557 0.94997
756 1 0.810382 0.615922 0.167754
757 1 0.28623 0.0334621 0.350582
758 1 0.0554426 0.564111 0.00939628
759 1 0.176665 0.915222 0.296434
760 1 0.725904 0.965032 0.0105859
761 1 0.983184 0.515266 0.15168
762 1 0.290288 0.158711 0.180385
763 1 0.0750418 0.869086 0.0787396
764 1 0.891264 0.156546 0.0465502
765 1 0.00696868 0.873138 0.803261
766 1 0.337951 0.199279 0.97707
767 1 0.15746 0.755796 0.488251
768 1 0.99049 0.73243 0.953641
769 1 0.238812 0.8798 0.619697
770 1 0.913661 0.921722 0.143699
771 1 0.142667 0.902768 0.820198
772 1 0.91879 0.0492708 0.740972
773 1 0.412218 0.0566902 0.38174
774 1 0.238399 0.244349 0.63865
775 1 0.413293 0.936713 0.397533
776 1 0.352309 0.958259 0.152302
777 1 0.681232 0.230079 0.948793
778 1 0.441397 0.784663 0.561865
779 1 0.233951 0.916273 0.143845
780 1 0.380146 0.785502 0.549834
781 1 0.513588 0.228475 0.0614338
782 1 0.303405 0.724816 0.454988
783 1 0.619119 0.00719203 0.0103128
784 1 0.487021 0.0555649 0.890506
785 1 0.798646 0.638685 0.311249
786 1 0.935884 0.0530841 0.0969759
787 1 0.731675 0.078074 0.987646
788 1 0.544107 0.0107297 0.826556
789 1 0.695434 0.71787 0.341172
790 1 0.583857 0.059752 0.250224
791 1 0.266695 0.994544 0.309333
792 1 0.239764 0.175747 0.20801
793 1 0.687158 0.837461 0.129938
794 1 0.405735 0.958438 0.279309
795 1 0.320522 0.877229 0.200482
796 1 0.622926 0.774776 0.229361
797 1 0.937607 0.114359 0.0725674
798 1 0.841422 0.328399 0.101051
799 1 0.355787 0.936365 0.23716
800 1 0.736022 0.779532 0.869438
801 1 0.854901 0.980962 0.683899
802 1 0.318898 0.919199 0.280997
803 1 0.185359 0.179012 0.130273
804 1 0.556211 0.377652 0.0204322
805 1 0.807906 0.913191 0.242636
806 1 0.291229 0.35731 0.959709
807 1 0.870466 0.39247 0.384403
808 1 0.351645 0.156578 0.159877
809 1 0.888061 0.989811 0.988769
810 1 0.43 0.823105 0.418516
811 1 0.182846 0.0795938 0.338443
812 1 0.189926 0.867206 0.350031
813 1 0.111715 0.250061 0.462363
814 1 0.224632 0.0551379 0.124101
815 1 0.218451 0.349571 0.541333
816 1 0.432562 0.986641 0.374474
817 1 0.964686 0.835476 0.441274
818 1 0.628395 0.949859 0.461978
819 1 0.332174 0.796153 0.484394
820 1 0.138221 0.214436 0.153089
821 1 0.82676 0.0779834 0.246215
822 1 0.944731 0.109314 0.418377
823 1 0.447251 0.682111 0.50749
824 1 0.566484 0.362589 0.288992
825 1 0.523678 0.143252 0.166303
826 1 0.976125 0.746647 0.305944
827 1 0.858569 0.786527 0.0511041
828 1 0.553957 0.630625 0.155707
829 1 0.822256 0.3412 0.317441
830 1 0.395224 0.998548 0.62752
831 1 0.404132 0.731095 0.926341
832 1 0.562514 0.890609 0.983419
833 1 0.618872 0.558732 0.14902
834 1 0.79479 0.050454 0.977101
835 1 0.0800207 0.261598 0.828426
836 1 0.892024 0.717149 0.0433721
837 1 0.623932 0.908045 0.995923
838 1 0.873705 0.304928 0.210638
839 1 0.838058 0.194135 0.22807
840 1 0.986302 0.141497 0.332815
841 1 0.102651 0.0369197 0.0278706
842 1 0.0901626 0.912706 0.721113
843 1 0.0387722 0.0905483 0.32553
844 1 0.438435 0.709677 0.80333
845 1 0.898425 0.290122 0.333148
846 1 0.160887 0.0328338 0.0427633
847 1 0.0734933 0.0252642 0.737826
848 1 0.0679143 0.535436 0.300575
849 1 0.0579338 0.269599 0.935545
850 1 0.443602 0.103568 0.0905503
851 1 0.319038 0.999478 0.649577
852 1 0.267044 0.0623574 0.965065
853 1 0.193117 0.859306 0.818321
854 1 0.344144 0.4978 0.132528
855 1 0.245431 0.154973 0.860751
856 1 0.353007 0.169038 0.493157
857 1 0.111443 0.334868 0.434098
858 1 0.584604 0.418141 0.15597
859 1 0.728905 0.880706 0.496489
860 1 0.433613 0.287128 0.656873
861 1 0.625171 0.0482081 0.053564
862 1 0.571671 0.30194 0.401548
863 1 0.674825 0.869899 0.575336
864 1 0.610309 0.435522 0.448346
865 1 0.614606 0.251093 0.934398
866 1 0.0157245 0.302492 0.895437
867 1 0.516807 0.837437 0.0794824
868 1 0.789739 0.157453 0.294833
869 1 0.981071 0.22527 0.212585
870 1 0.458569 0.2061 0.105927
871 1 0.847222 0.128853 0.208105
872 1 0.250279 0.0102921 0.154101
873 1 0.782162 0.155074 0.933037
874 1 0.687813 0.120016 0.237443
875 1 0.661766 0.874156 0.344528
876 1 0.00332923 0.776374 0.89101
877 1 0.650596 0.502587 0.524793
878 1 0.036776 0.963899 0.262147
879 1 0.919303 0.277573 0.884115
880 1 0.0430501 0.902248 0.279477
881 1 0.612811 0.82326 0.554304
882 1 0.618227 0.324183 0.932218
883 1 0.322878 0.148391 0.545309
884 1 0.0367325 0.501237 0.0292869
885 1 0.267077 0.740073 0.219976
886 1 0.766018 0.138632 0.441602
887 1 0.857054 0.877416 0.127354
888 1 0.54617 0.237372 0.226694
889 1 0.199131 0.371295 0.0201368
890 1 0.955449 0.393228 0.0138582
891 1 0.465295 0.412155 0.987905
892 1 0.631604 0.112097 0.0221999
893 1 0.238589 0.341658 0.988245
894 1 0.251947 0.507092 0.549017
895 1 0.567324 0.83475 0.463061
896 1 0.0858835 0.192077 0.137798
897 1 0.158568 0.0557253 0.110853
898 1 0.767605 0.340907 0.268934
899 1 0.390752 0.00356592 0.0914824
900 1 0.447915 0.304397 0.472678
901 1 0.772696 0.423513 0.640163
902 1 0.493344 0.311427 0.0460156