ITEM: TIMESTEP
15500
ITEM: NUMBER OF ATOMS
4000
ITEM: BOX BOUNDS pp pp pp
0.0000000000000000e+00 1.6795961913825074e+01
0.0000000000000000e+00 1.6795961913825074e+01
0.0000000000000000e+00 1.6795961913825074e+01
ITEM: ATOMS id type xs ys zs
1 1 0.996578 0.0018053 0.00174066
2 1 0.0516975 0.0426735 0.997922
3 1 0.0608578 0.999059 0.0467436
4 1 0.989058 0.0453758 0.0481197
5 1 0.0977848 0.993632 0.997157
6 1 0.146131 0.0440467 0.000907152
7 1 0.145736 0.989316 0.047661
8 1 0.106929 0.053236 0.0552995
9 1 0.201755 0.997504 0.00475359
10 1 0.254464 0.0421039 0.994498
11 1 0.254633 0.00154052 0.0450959
12 1 0.197062 0.0539239 0.0423965
13 1 0.300016 0.996414 0.993493
14 1 0.354702 0.0423747 0.993919
15 1 0.349303 0.992813 0.0509644
16 1 0.298566 0.0545246 0.0382373
17 1 0.41106 0.993216 0.998469
18 1 0.455281 0.0490567 0.994586
19 1 0.453144 0.996538 0.0536883
20 1 0.402181 0.0392606 0.0407875
21 1 0.504059 0.990805 0.00162998
22 1 0.550174 0.0403952 0.999494
23 1 0.548298 0.99713 0.0478908
24 1 0.497148 0.0506831 0.0522963
25 1 0.596462 0.997735 0.00293743
26 1 0.642793 0.0428098 0.00173198
27 1 0.639107 0.998195 0.0543268
28 1 0.594802 0.0475641 0.0576773
29 1 0.704181 0.000601387 0.996557
30 1 0.738238 0.0522045 0.994999
31 1 0.748619 0.000701771 0.0494588
32 1 0.700604 0.0515067 0.0468136
33 1 0.794017 0.997351 0.997273
34 1 0.844542 0.0584568 0.00308858
35 1 0.848316 0.00183409 0.0388656
36 1 0.795305 0.0466863 0.0445889
37 1 0.8998 0.991583 0.995436
38 1 0.948664 0.0513705 0.000619502
39 1 0.942509 0.999354 0.0410452
40 1 0.899965 0.0522776 0.0471145
41 1 0.0150706 0.101567 0.991245
42 1 0.0519234 0.150942 0.991558
43 1 0.0567021 0.095744 0.0359063
44 1 0.00462863 0.150415 0.0468919
45 1 0.108419 0.100085 0.995098
46 1 0.145446 0.157977 0.00242296
47 1 0.150093 0.0978834 0.0471147
48 1 0.0975513 0.154287 0.0423447
49 1 0.190304 0.101415 0.99007
50 1 0.239325 0.146909 0.000534481
51 1 0.24546 0.0984009 0.0462717
52 1 0.19493 0.143721 0.051701
53 1 0.296328 0.0998191 0.994654
54 1 0.351797 0.148305 0.997899
55 1 0.363905 0.102099 0.0505399
56 1 0.301485 0.146945 0.0467729
57 1 0.399762 0.0931133 0.989982
58 1 0.448284 0.148379 0.994047
59 1 0.449287 0.0978444 0.0511567
60 1 0.407632 0.150262 0.0437492
61 1 0.505691 0.0990118 0.000814285
62 1 0.552241 0.15505 0.999952
63 1 0.549751 0.0982068 0.0502563
64 1 0.496672 0.144435 0.0478347
65 1 0.589068 0.0936359 0.998769
66 1 0.655263 0.156025 0.994552
67 1 0.641602 0.0897389 0.0437262
68 1 0.602388 0.141044 0.0455325
69 1 0.699762 0.109253 0.996395
70 1 0.745965 0.15454 0.993091
71 1 0.746823 0.0972456 0.0460661
72 1 0.700126 0.14659 0.0552613
73 1 0.792135 0.0962869 0.00131205
74 1 0.846875 0.149228 0.990553
75 1 0.854591 0.099835 0.0521669
76 1 0.80547 0.144382 0.0411923
77 1 0.897428 0.105265 0.000231774
78 1 0.95397 0.153918 0.00164633
79 1 0.946 0.0971331 0.0521693
80 1 0.8973 0.145411 0.0534387
81 1 0.0035108 0.198136 0.000827562
82 1 0.0554398 0.251171 5.28392e-05
83 1 0.0499908 0.198947 0.0501124
84 1 0.99347 0.252623 0.0465016
85 1 0.0989194 0.200871 0.99918
86 1 0.148994 0.257407 0.000653738
87 1 0.146873 0.204283 0.0490467
88 1 0.102146 0.249118 0.0442775
89 1 0.197362 0.198882 0.00394453
90 1 0.248893 0.242951 0.994279
91 1 0.245248 0.18609 0.0489561
92 1 0.19986 0.247706 0.0505306
93 1 0.301348 0.195539 0.987207
94 1 0.353327 0.240795 0.998155
95 1 0.352765 0.189016 0.0455303
96 1 0.300755 0.230482 0.0394747
97 1 0.405331 0.194433 0.000796494
98 1 0.454137 0.239605 0.995333
99 1 0.451071 0.201648 0.047208
100 1 0.400681 0.252599 0.045371
101 1 0.499303 0.194423 0.994509
102 1 0.560629 0.243022 0.008327
103 1 0.553001 0.190721 0.0526941
104 1 0.50003 0.244703 0.0432473
105 1 0.611724 0.201191 0.00271325
106 1 0.653293 0.259476 0.0061381
107 1 0.657098 0.204815 0.0536114
108 1 0.607996 0.245234 0.0562553
109 1 0.699251 0.214596 0.000473095
110 1 0.752962 0.248328 0.00653159
111 1 0.74625 0.2013 0.0533287
112 1 0.701464 0.257859 0.0563985
113 1 0.798706 0.196772 0.992512
114 1 0.84654 0.244046 0.997334
115 1 0.847627 0.196262 0.0554084
116 1 0.79699 0.242509 0.0488569
117 1 0.892459 0.193524 0.0090755
118 1 0.952738 0.243959 -0.00125949
119 1 0.947475 0.201633 0.0512302
120 1 0.897111 0.250011 0.044328
121 1 0.992833 0.301493 0.999579
122 1 0.0483176 0.341679 0.00354001
123 1 0.0435078 0.299023 0.0515248
124 1 0.996681 0.343769 0.0509654
125 1 0.0961011 0.302138 0.999687
126 1 0.15008 0.347187 0.00663965
127 1 0.148336 0.299216 0.0541937
128 1 0.0974599 0.348351 0.0461368
129 1 0.204174 0.300006 0.00259427
130 1 0.251902 0.353613 0.997062
131 1 0.252335 0.289615 0.0436897
132 1 0.206081 0.353194 0.0480195
133 1 0.302058 0.293129 0.00182958
134 1 0.342889 0.346393 0.999087
135 1 0.343613 0.292394 0.0523161
136 1 0.29592 0.352598 0.0479649
137 1 0.391759 0.299643 0.00637429
138 1 0.439608 0.338567 0.00257753
139 1 0.447374 0.300427 0.0521131
140 1 0.397803 0.348394 0.0558822
141 1 0.506856 0.288984 0.000901571
142 1 0.544691 0.344567 0.995946
143 1 0.550372 0.2982 0.0451032
144 1 0.492932 0.344594 0.0387956
145 1 0.601448 0.296473 2.1153e-05
146 1 0.65144 0.338803 0.992008
147 1 0.651576 0.303085 0.0507514
148 1 0.596464 0.347543 0.0498592
149 1 0.705704 0.30383 0.992637
150 1 0.755821 0.356144 0.992556
151 1 0.754496 0.300148 0.0481708
152 1 0.706792 0.348914 0.057223
153 1 0.802916 0.297111 0.00114645
154 1 0.849698 0.341291 0.999466
155 1 0.844268 0.288178 0.0472104
156 1 0.792626 0.351397 0.0408112
157 1 0.903898 0.295712 0.998013
158 1 0.948279 0.354065 0.999308
159 1 0.942807 0.298561 0.0504641
160 1 0.897304 0.343928 0.0477686
161 1 -0.000351441 0.397005 0.992668
162 1 0.0429722 0.449173 1.00024
163 1 0.0438121 0.401863 0.0455582
164 1 0.99558 0.450443 0.0548953
165 1 0.102282 0.399752 0.00401197
166 1 0.152458 0.454261 0.996343
167 1 0.15055 0.395949 0.0476926
168 1 0.095942 0.455592 0.0424013
169 1 0.198054 0.393623 0.998525
170 1 0.257474 0.440882 0.988308
171 1 0.246318 0.402538 0.0419223
172 1 0.195335 0.446692 0.0414005
173 1 0.303929 0.398381 0.995826
174 1 0.354336 0.438956 0.992446
175 1 0.348228 0.40066 0.0446948
176 1 0.299832 0.442419 0.0434816
177 1 0.398326 0.387803 -5.54296e-06
178 1 0.443889 0.439741 0.991352
179 1 0.444492 0.393318 0.0575241
180 1 0.394618 0.44938 0.0493585
181 1 0.495351 0.401352 0.00468558
182 1 0.542015 0.445573 0.00547509
183 1 0.550766 0.392944 0.0509985
184 1 0.500005 0.443218 0.0493846
185 1 0.597089 0.387364 0.99923
186 1 0.64789 0.446426 0.99508
187 1 0.648163 0.392069 0.0463047
188 1 0.601583 0.444569 0.0431987
189 1 0.696643 0.394233 0.994811
190 1 0.747281 0.452427 0.998025
191 1 0.743171 0.402352 0.0441814
192 1 0.689193 0.448762 0.0438339
193 1 0.804696 0.401995 0.995676
194 1 0.847204 0.446485 0.990191
195 1 0.846497 0.392282 0.0487735
196 1 0.801035 0.444659 0.0427468
197 1 0.89867 0.397471 0.995581
198 1 0.954726 0.446464 0.998206
199 1 0.948236 0.402659 0.0475936
200 1 0.889722 0.4468 0.0443665
201 1 0.997128 0.498032 0.000341947
202 1 0.0407162 0.544272 0.00570883
203 1 0.041282 0.498139 0.052094
204 1 0.989349 0.553741 0.0447924
205 1 0.103594 0.505247 0.985257
206 1 0.15428 0.557106 0.997047
207 1 0.145544 0.502996 0.0388666
208 1 0.0899953 0.551292 0.0442586
209 1 0.195107 0.506209 0.998362
210 1 0.2531 0.546594 0.999247
211 1 0.252155 0.49196 0.0372464
212 1 0.201391 0.549984 0.0453651
213 1 0.298691 0.494857 0.993752
214 1 0.351007 0.548952 0.000303282
215 1 0.348447 0.489532 0.038985
216 1 0.303196 0.538934 0.041683
217 1 0.400771 0.49777 0.993115
218 1 0.444878 0.554066 0.995249
219 1 0.452664 0.49609 0.0361545
220 1 0.406246 0.550075 0.0483351
221 1 0.499277 0.498438 0.996788
222 1 0.544044 0.544463 0.99933
223 1 0.546372 0.496081 0.0460658
224 1 0.491436 0.548332 0.0460368
225 1 0.605456 0.504524 0.993706
226 1 0.653763 0.548618 0.00219962
227 1 0.646087 0.505739 0.0545713
228 1 0.590795 0.546522 0.0503253
229 1 0.690034 0.495199 -0.000526599
230 1 0.750935 0.548353 0.00116902
231 1 0.747584 0.490941 0.0474073
232 1 0.704381 0.548917 0.0574871
233 1 0.795911 0.499276 0.00245747
234 1 0.850007 0.543748 0.991246
235 1 0.847764 0.497808 0.040049
236 1 0.794245 0.540281 0.0495662
237 1 0.899613 0.490263 0.990681
238 1 0.939531 0.540065 0.00141643
239 1 0.944483 0.495216 0.0449267
240 1 0.897281 0.540712 0.0495753
241 1 0.997208 0.601675 0.997261
242 1 0.044618 0.647638 0.996849
243 1 0.0486653 0.601126 0.047051
244 1 0.996139 0.651104 0.0497536
245 1 0.0997596 0.603144 0.99456
246 1 0.152096 0.645028 0.99685
247 1 0.145742 0.592839 0.0454122
248 1 0.0992525 0.653034 0.0408755
249 1 0.204977 0.600825 0.999727
250 1 0.24958 0.653298 0.999451
251 1 0.252138 0.60399 0.0406258
252 1 0.203998 0.645725 0.0468172
253 1 0.305187 0.594142 0.98671
254 1 0.350299 0.648164 0.995035
255 1 0.34365 0.605445 0.0455139
256 1 0.291096 0.6512 0.0482802
257 1 0.39646 0.604289 0.995741
258 1 0.441918 0.652071 0.00164984
259 1 0.444957 0.604709 0.0450629
260 1 0.396197 0.662197 0.052068
261 1 0.494683 0.594995 0.998713
262 1 0.54308 0.649525 0.997004
263 1 0.543331 0.602581 0.0444945
264 1 0.495737 0.646082 0.0449056
265 1 0.594467 0.590893 0.998373
266 1 0.648544 0.642798 0.00536819
267 1 0.632218 0.590419 0.0482067
268 1 0.590909 0.643956 0.0442413
269 1 0.699168 0.601715 0.00190605
270 1 0.749557 0.650262 0.99869
271 1 0.747829 0.599011 0.0492512
272 1 0.700604 0.646895 0.0436793
273 1 0.797133 0.597867 0.00655373
274 1 0.849745 0.651608 0.996658
275 1 0.840929 0.586249 0.0480319
276 1 0.803221 0.652601 0.0460903
277 1 0.904616 0.592217 0.010811
278 1 0.947383 0.644501 0.999511
279 1 0.949342 0.603329 0.0558867
280 1 0.896267 0.647373 0.0464796
281 1 0.00385592 0.697783 0.00703849
282 1 0.0515547 0.745221 0.995703
283 1 0.0520703 0.695575 0.0468769
284 1 0.0178238 0.752124 0.0471663
285 1 0.0994196 0.697341 0.991856
286 1 0.141142 0.747373 0.994653
287 1 0.146182 0.695731 0.0402713
288 1 0.102077 0.748708 0.0523431
289 1 0.192683 0.701437 0.997909
290 1 0.237848 0.748725 0.000631888
291 1 0.244007 0.694872 0.0578136
292 1 0.197011 0.754886 0.0502389
293 1 0.294256 0.700484 0.99972
294 1 0.343371 0.748014 0.996905
295 1 0.341385 0.703508 0.0422515
296 1 0.291521 0.747397 0.0522191
297 1 0.398787 0.707024 1.00024
298 1 0.447221 0.747627 0.00809061
299 1 0.453176 0.697441 0.0581322
300 1 0.39699 0.741247 0.0571995
301 1 0.497345 0.699827 0.998696
302 1 0.543605 0.75105 0.997367
303 1 0.552692 0.701444 0.040419
304 1 0.499683 0.741027 0.0580927
305 1 0.598541 0.693261 0.000151498
306 1 0.655242 0.748454 0.0012646
307 1 0.649978 0.697897 0.0455357
308 1 0.594017 0.748742 0.0441401
309 1 0.705482 0.707666 1.00019
310 1 0.746986 0.755334 0.990985
311 1 0.752674 0.691943 0.0445305
312 1 0.701121 0.747317 0.0484067
313 1 0.802394 0.701579 0.994448
314 1 0.854712 0.747134 0.987212
315 1 0.855773 0.702764 0.0391761
316 1 0.805327 0.752812 0.0388675
317 1 0.899108 0.695045 0.994164
318 1 0.947292 0.740499 1.00038
319 1 0.942704 0.692143 0.0461066
320 1 0.900771 0.751341 0.0476194
321 1 0.00159665 0.796386 0.996207
322 1 0.0379233 0.852309 0.998327
323 1 0.0478284 0.809482 0.0448026
324 1 0.991248 0.851001 0.0481431
325 1 0.0996196 0.80119 0.996571
326 1 0.155162 0.844255 0.998523
327 1 0.150767 0.801608 0.0492426
328 1 0.100481 0.851168 0.0531112
329 1 0.196981 0.79882 0.999833
330 1 0.254247 0.84138 0.992043
331 1 0.244384 0.797371 0.0455573
332 1 0.201372 0.847135 0.0481888
333 1 0.298128 0.793038 0.991693
334 1 0.341601 0.844918 0.992185
335 1 0.342378 0.789355 0.0418432
336 1 0.294244 0.84254 0.0508951
337 1 0.395524 0.799892 0.996531
338 1 0.449701 0.838113 0.989891
339 1 0.440058 0.794419 0.0518195
340 1 0.393664 0.840882 0.046493
341 1 0.488748 0.789913 0.999842
342 1 0.549172 0.84132 0.997763
343 1 0.542293 0.79626 0.049068
344 1 0.493975 0.843727 0.0456875
345 1 0.59936 0.800237 0.995965
346 1 0.647917 0.843629 0.995595
347 1 0.640758 0.7952 0.0424767
348 1 0.598867 0.843074 0.044317
349 1 0.697637 0.798607 -6.50763e-05
350 1 0.742556 0.846398 0.991892
351 1 0.753391 0.805372 0.0413817
352 1 0.700494 0.847423 0.0473354
353 1 0.798095 0.803602 0.991544
354 1 0.84621 0.84991 0.998972
355 1 0.849169 0.80106 0.0391186
356 1 0.804895 0.847564 0.0459652
357 1 0.901173 0.792416 0.995362
358 1 0.957759 0.846048 0.993445
359 1 0.958881 0.790111 0.0459792
360 1 0.903869 0.847736 0.0445029
361 1 0.997638 0.908442 0.998096
362 1 0.0464726 0.94446 0.00188973
363 1 0.0531703 0.890105 0.050855
364 1 0.00184793 0.959374 0.048982
365 1 0.100238 0.887029 0.991585
366 1 0.153523 0.948921 0.998359
367 1 0.152909 0.890427 0.0512597
368 1 0.0958019 0.934033 0.0421024
369 1 0.197834 0.894929 0.995234
370 1 0.241559 0.94667 0.00234883
371 1 0.250841 0.895894 0.0475307
372 1 0.198772 0.947219 0.0555518
373 1 0.297876 0.893506 0.991315
374 1 0.347885 0.942261 0.991618
375 1 0.341345 0.894289 0.0512613
376 1 0.301901 0.948168 0.0362155
377 1 0.400641 0.892048 0.9923
378 1 0.453468 0.941408 0.998179
379 1 0.445318 0.888509 0.0414742
380 1 0.402293 0.943034 0.0408175
381 1 0.49865 0.891693 0.991981
382 1 0.542897 0.942676 0.997044
383 1 0.544774 0.886996 0.0435967
384 1 0.499284 0.943101 0.0507177
385 1 0.596419 0.892298 0.99678
386 1 0.639242 0.951135 1.00004
387 1 0.650839 0.893934 0.0437395
388 1 0.587956 0.944053 0.0473844
389 1 0.700689 0.897228 -4.39612e-07
390 1 0.751487 0.950172 0.995723
391 1 0.75016 0.888786 0.0460868
392 1 0.695998 0.95498 0.0453791
393 1 0.795821 0.895604 0.995446
394 1 0.846791 0.947413 0.989298
395 1 0.84294 0.898138 0.0437887
396 1 0.798019 0.945244 0.0446564
397 1 0.90396 0.903168 0.00250401
398 1 0.951343 0.952529 0.998178
399 1 0.951893 0.900986 0.0516436
400 1 0.891105 0.949363 0.0462644
401 1 0.00667934 0.998588 0.0988835
402 1 0.0436352 0.0568108 0.0929234
403 1 0.0487783 0.000404486 0.155093
404 1 0.99889 0.0467681 0.150018
405 1 0.101838 0.00240283 0.0963942
406 1 0.155371 0.043422 0.0929386
407 1 0.156297 0.995971 0.140015
408 1 0.0918711 0.0569351 0.138093
409 1 0.20384 0.00204604 0.0909112
410 1 0.252518 0.0534551 0.091327
411 1 0.2487 0.000906379 0.144172
412 1 0.203863 0.0529576 0.142464
413 1 0.300082 0.00946233 0.0913345
414 1 0.359415 0.0474239 0.0922048
415 1 0.34755 0.99789 0.145063
416 1 0.298308 0.0461293 0.145605
417 1 0.400712 0.990808 0.0927415
418 1 0.448199 0.0496231 0.105772
419 1 0.446811 0.990807 0.14213
420 1 0.401482 0.043151 0.150788
421 1 0.501101 0.00262707 0.101413
422 1 0.552639 0.0518936 0.105026
423 1 0.546441 0.00113778 0.148947
424 1 0.499652 0.0481135 0.150574
425 1 0.599133 0.00327465 0.100842
426 1 0.649377 0.04975 0.0958604
427 1 0.650153 0.00418539 0.14635
428 1 0.600823 0.0570567 0.153453
429 1 0.701136 0.998498 0.0971899
430 1 0.745406 0.0537007 0.10184
431 1 0.75079 0.997088 0.151543
432 1 0.699552 0.0489257 0.149706
433 1 0.797918 0.00624362 0.090721
434 1 0.855073 0.0476241 0.09916
435 1 0.846553 0.993685 0.14469
436 1 0.802828 0.0437097 0.143842
437 1 0.893654 0.996419 0.0933928
438 1 0.948654 0.0395532 0.102088
439 1 0.944487 0.993669 0.154458
440 1 0.898902 0.05 0.147795
441 1 0.985557 0.0893372 0.102306
442 1 0.0525834 0.156477 0.0974608
443 1 0.0387991 0.0969938 0.140271
444 1 0.995099 0.143387 0.146507
445 1 0.0991482 0.105706 0.0937985
446 1 0.147666 0.147145 0.0952302
447 1 0.150935 0.0984289 0.13918
448 1 0.0974071 0.143801 0.146274
449 1 0.195597 0.096533 0.0933029
450 1 0.25332 0.1526 0.102579
451 1 0.251764 0.102091 0.148284
452 1 0.196478 0.152869 0.15087
453 1 0.309152 0.0852595 0.0927878
454 1 0.355717 0.145786 0.0945619
455 1 0.354205 0.0893943 0.149997
456 1 0.299257 0.142589 0.144655
457 1 0.406458 0.100619 0.101928
458 1 0.448066 0.14807 0.0996571
459 1 0.452311 0.0980281 0.153026
460 1 0.40216 0.141452 0.148281
461 1 0.501133 0.111215 0.104618
462 1 0.55273 0.151272 0.105801
463 1 0.546621 0.105552 0.158097
464 1 0.502293 0.153647 0.15372
465 1 0.597796 0.0948589 0.102491
466 1 0.640859 0.144258 0.0965526
467 1 0.653589 0.104037 0.147347
468 1 0.601754 0.141027 0.153484
469 1 0.697612 0.0976756 0.100238
470 1 0.753326 0.140614 0.0974193
471 1 0.759393 0.0937542 0.153217
472 1 0.704834 0.151683 0.144136
473 1 0.801483 0.0956539 0.0962021
474 1 0.847863 0.144404 0.0989894
475 1 0.852703 0.100075 0.150827
476 1 0.7998 0.1445 0.149348
477 1 0.899972 0.10548 0.106001
478 1 0.947606 0.149753 0.102978
479 1 0.947446 0.0949642 0.150284
480 1 0.89705 0.154286 0.147597
481 1 0.997405 0.201695 0.100211
482 1 0.0481481 0.252196 0.0992961
483 1 0.0470947 0.196932 0.144898
484 1 1.00087 0.250673 0.152689
485 1 0.0998628 0.203079 0.0947059
486 1 0.149143 0.248344 0.0985971
487 1 0.144547 0.196878 0.150199
488 1 0.09289 0.249871 0.149621
489 1 0.196641 0.196831 0.0936902
490 1 0.247281 0.236164 0.0963007
491 1 0.247122 0.19726 0.148515
492 1 0.200705 0.244834 0.145576
493 1 0.303069 0.192432 0.0963692
494 1 0.34422 0.243781 0.0944103
495 1 0.344151 0.19067 0.142058
496 1 0.29799 0.23823 0.142076
497 1 0.405828 0.190496 0.0995702
498 1 0.449542 0.241441 0.103454
499 1 0.450238 0.193985 0.146197
500 1 0.398429 0.244691 0.144573
501 1 0.499319 0.19031 0.0980181
502 1 0.550303 0.243317 0.0941706
503 1 0.549658 0.192207 0.150623
504 1 0.494672 0.248874 0.144877
505 1 0.598642 0.197138 0.100981
506 1 0.652086 0.255132 0.0991979
507 1 0.64321 0.198819 0.146225
508 1 0.59154 0.241089 0.150345
509 1 0.694243 0.200965 0.108686
510 1 0.746442 0.25044 0.101262
511 1 0.751474 0.199022 0.146458
512 1 0.695389 0.243582 0.154115
513 1 0.800989 0.204059 0.100582
514 1 0.850891 0.248403 0.0957515
515 1 0.845856 0.196375 0.146594
516 1 0.79565 0.251357 0.151771
517 1 0.89585 0.204683 0.100098
518 1 0.94753 0.24994 0.0989923
519 1 0.947008 0.194008 0.1523
520 1 0.89379 0.249571 0.157298
521 1 0.993404 0.302109 0.100737
522 1 0.0511843 0.349254 0.0980022
523 1 0.0505059 0.300016 0.14918
524 1 0.00128489 0.349401 0.146787
525 1 0.0950925 0.297747 0.0943757
526 1 0.152944 0.351593 0.0959985
527 1 0.139482 0.293072 0.142743
528 1 0.0976992 0.357118 0.146362
529 1 0.192672 0.294829 0.101589
530 1 0.242584 0.34631 0.0990719
531 1 0.251896 0.294542 0.144273
532 1 0.201583 0.347421 0.153192
533 1 0.296701 0.295485 0.0970329
534 1 0.345036 0.35008 0.0968864
535 1 0.351514 0.299048 0.150886
536 1 0.295679 0.354065 0.145831
537 1 0.390039 0.300014 0.0981142
538 1 0.451492 0.346316 0.110532
539 1 0.444387 0.295597 0.152257
540 1 0.395408 0.349809 0.150249
541 1 0.503732 0.301949 0.0932135
542 1 0.544856 0.350006 0.0979901
543 1 0.547051 0.289993 0.144009
544 1 0.4931 0.339266 0.156562
545 1 0.599342 0.297033 0.101143
546 1 0.651222 0.342751 0.0991592
547 1 0.655974 0.302584 0.14981
548 1 0.60334 0.33914 0.148773
549 1 0.701667 0.299847 0.106298
550 1 0.754629 0.346631 0.103403
551 1 0.749221 0.303103 0.15253
552 1 0.699529 0.349434 0.146082
553 1 0.802209 0.296506 0.100584
554 1 0.838757 0.343621 0.0897528
555 1 0.849071 0.29665 0.149708
556 1 0.797394 0.349419 0.153935
557 1 0.896617 0.305273 0.0987484
558 1 0.943065 0.348928 0.0972179
559 1 0.942415 0.29505 0.151982
560 1 0.897325 0.345768 0.152333
561 1 0.000486591 0.396835 0.100963
562 1 0.0527442 0.443663 0.103381
563 1 0.0465891 0.399671 0.149278
564 1 0.998877 0.44343 0.1512
565 1 0.0957459 0.397946 0.0918864
566 1 0.146295 0.45148 0.0911138
567 1 0.153419 0.399498 0.140322
568 1 0.103057 0.448874 0.152119
569 1 0.202114 0.403436 0.0982566
570 1 0.243019 0.451103 0.0879939
571 1 0.249722 0.404602 0.145266
572 1 0.19945 0.45112 0.144226
573 1 0.297161 0.396802 0.0955579
574 1 0.348544 0.453609 0.0965794
575 1 0.349591 0.400389 0.148947
576 1 0.298644 0.456781 0.157597
577 1 0.38883 0.396692 0.0938141
578 1 0.44719 0.430554 0.10926
579 1 0.452904 0.384417 0.156781
580 1 0.393225 0.458073 0.145923
581 1 0.50586 0.399529 0.0997732
582 1 0.558145 0.439174 0.0993757
583 1 0.559128 0.392257 0.148378
584 1 0.504991 0.442216 0.147117
585 1 0.606743 0.394667 0.103028
586 1 0.652195 0.450706 0.100359
587 1 0.651176 0.396553 0.14924
588 1 0.600187 0.443924 0.14781
589 1 0.702347 0.400921 0.09028
590 1 0.754545 0.443273 0.0898722
591 1 0.750169 0.398423 0.149734
592 1 0.700637 0.445509 0.142276
593 1 0.797319 0.39576 0.0978723
594 1 0.845219 0.444462 0.102207
595 1 0.850893 0.394357 0.144568
596 1 0.79593 0.441622 0.145189
597 1 0.897036 0.392275 0.0978931
598 1 0.944336 0.448392 0.0967533
599 1 0.947524 0.395458 0.145199
600 1 0.899207 0.437295 0.145215
601 1 0.997892 0.498962 0.106249
602 1 0.0507517 0.543853 0.099321
603 1 0.045732 0.490935 0.153036
604 1 0.991008 0.554398 0.153186
605 1 0.0951537 0.498309 0.0964817
606 1 0.147116 0.543454 0.103601
607 1 0.14821 0.494918 0.147729
608 1 0.100525 0.548261 0.151318
609 1 0.196354 0.502864 0.103861
610 1 0.253206 0.550422 0.0928006
611 1 0.243784 0.50736 0.141566
612 1 0.195248 0.550882 0.154251
613 1 0.296284 0.491998 0.0889263
614 1 0.346885 0.539069 0.0932335
615 1 0.346592 0.503415 0.157292
616 1 0.301857 0.549841 0.157401
617 1 0.396512 0.497294 0.0918889
618 1 0.454302 0.546394 0.109097
619 1 0.44581 0.501728 0.152594
620 1 0.391774 0.548134 0.147066
621 1 0.498799 0.490903 0.0911011
622 1 0.544211 0.54445 0.0938464
623 1 0.553178 0.508995 0.15202
624 1 0.499064 0.556573 0.153996
625 1 0.603325 0.499896 0.103177
626 1 0.644329 0.546545 0.107228
627 1 0.647836 0.494789 0.152225
628 1 0.603612 0.557966 0.15537
629 1 0.695124 0.496067 0.0990176
630 1 0.755944 0.548909 0.100812
631 1 0.751173 0.500331 0.148475
632 1 0.70412 0.542142 0.150955
633 1 0.799925 0.492185 0.0969569
634 1 0.840411 0.552349 0.106431
635 1 0.851803 0.498099 0.145618
636 1 0.801711 0.539642 0.157399
637 1 0.891998 0.496691 0.0999013
638 1 0.950486 0.554275 0.0998589
639 1 0.950803 0.487099 0.150775
640 1 0.89713 0.557877 0.142545
641 1 0.996555 0.597157 0.101046
642 1 0.0472725 0.650584 0.0956099
643 1 0.0485719 0.592555 0.15168
644 1 0.00379894 0.64268 0.147023
645 1 0.0963689 0.595984 0.101274
646 1 0.146749 0.639863 0.101341
647 1 0.153 0.60186 0.158913
648 1 0.097325 0.648275 0.152756
649 1 0.194286 0.585843 0.100258
650 1 0.250633 0.634923 0.0998632
651 1 0.251884 0.594068 0.159793
652 1 0.20753 0.635962 0.15244
653 1 0.308835 0.596112 0.099315
654 1 0.351965 0.656766 0.103256
655 1 0.347524 0.603641 0.157215
656 1 0.306168 0.657501 0.149857
657 1 0.394965 0.603699 0.093803
658 1 0.449064 0.647995 0.0983782
659 1 0.447602 0.592318 0.147998
660 1 0.396712 0.652315 0.149737
661 1 0.494915 0.598646 0.0871032
662 1 0.544298 0.654097 0.0926586
663 1 0.544619 0.604485 0.139889
664 1 0.488077 0.643155 0.149807
665 1 0.588324 0.595967 0.0964588
666 1 0.645043 0.643384 0.0846634
667 1 0.651463 0.599122 0.146727
668 1 0.600484 0.642533 0.14784
669 1 0.69446 0.601601 0.100184
670 1 0.747145 0.649034 0.0993662
671 1 0.745965 0.593957 0.152411
672 1 0.706785 0.644179 0.148986
673 1 0.797453 0.608237 0.0938659
674 1 0.848041 0.655199 0.0913251
675 1 0.845451 0.612805 0.14381
676 1 0.797291 0.655988 0.144773
677 1 0.886655 0.598633 0.0919412
678 1 0.952059 0.653967 0.10252
679 1 0.948066 0.604231 0.154979
680 1 0.899007 0.649431 0.144414
681 1 0.990223 0.709655 0.0897853
682 1 0.0495387 0.738097 0.100486
683 1 0.0533994 0.691343 0.150208
684 1 0.00798941 0.742516 0.15959
685 1 0.10766 0.694879 0.0917934
686 1 0.148397 0.749796 0.103002
687 1 0.147041 0.698653 0.155297
688 1 0.0949983 0.737986 0.143847
689 1 0.189261 0.689684 0.110452
690 1 0.239742 0.750587 0.0993411
691 1 0.247055 0.699641 0.147422
692 1 0.198177 0.748435 0.152979
693 1 0.291091 0.703993 0.102455
694 1 0.349593 0.745238 0.102027
695 1 0.348989 0.702504 0.158401
696 1 0.303176 0.748717 0.14929
697 1 0.399643 0.700074 0.111818
698 1 0.447991 0.74739 0.101553
699 1 0.446793 0.695044 0.147066
700 1 0.392097 0.748323 0.154346
701 1 0.496914 0.694983 0.104947
702 1 0.55095 0.749824 0.0941243
703 1 0.556098 0.692272 0.151321
704 1 0.500766 0.750575 0.14385
705 1 0.596861 0.701102 0.0963692
706 1 0.6462 0.754192 0.0940971
707 1 0.647008 0.700521 0.141812
708 1 0.603207 0.746435 0.145923
709 1 0.702198 0.696174 0.0847469
710 1 0.749229 0.740958 0.0880695
711 1 0.74316 0.703347 0.140924
712 1 0.690848 0.757896 0.14249
713 1 0.804155 0.702309 0.0965495
714 1 0.850493 0.748632 0.100427
715 1 0.853608 0.699481 0.142906
716 1 0.801273 0.750351 0.14694
717 1 0.900548 0.699925 0.0946342
718 1 0.940576 0.753991 0.0951127
719 1 0.948549 0.701501 0.150678
720 1 0.897221 0.755289 0.145142
721 1 0.000709606 0.78975 0.104969
722 1 0.0506311 0.845575 0.101324
723 1 0.0536627 0.790079 0.151026
724 1 0.0132571 0.843642 0.156939
725 1 0.0953519 0.794819 0.10024
726 1 0.146112 0.844072 0.0970423
727 1 0.138368 0.788267 0.151653
728 1 0.0925897 0.84135 0.146755
729 1 0.1964 0.801356 0.0961231
730 1 0.255293 0.835904 0.103273
731 1 0.251283 0.79107 0.146334
732 1 0.198934 0.843934 0.142036
733 1 0.30025 0.789672 0.0979171
734 1 0.344172 0.846567 0.104062
735 1 0.346335 0.79868 0.156391
736 1 0.298708 0.842803 0.154794
737 1 0.39671 0.795658 0.103109
738 1 0.446987 0.84522 0.0963737
739 1 0.452907 0.797003 0.145684
740 1 0.406104 0.845299 0.147351
741 1 0.497656 0.796126 0.0949707
742 1 0.544315 0.840496 0.105618
743 1 0.556839 0.78854 0.154124
744 1 0.48862 0.84761 0.141274
745 1 0.598796 0.796834 0.10182
746 1 0.649555 0.836754 0.0980964
747 1 0.642535 0.796403 0.148647
748 1 0.599574 0.850193 0.149773
749 1 0.699893 0.798391 0.0934552
750 1 0.750558 0.841782 0.0972129
751 1 0.743634 0.800426 0.153168
752 1 0.695282 0.848862 0.140238
753 1 0.804149 0.788619 0.0872166
754 1 0.851805 0.848711 0.0896281
755 1 0.848268 0.80737 0.15689
756 1 0.792459 0.852784 0.15004
757 1 0.895206 0.800804 0.0922934
758 1 0.954551 0.845109 0.0974721
759 1 0.954333 0.794512 0.152276
760 1 0.899868 0.856324 0.147732
761 1 0.0043217 0.899187 0.0972374
762 1 0.0485375 0.953678 0.0932946
763 1 0.0513277 0.899678 0.148181
764 1 0.999495 0.940596 0.152886
765 1 0.100172 0.892327 0.10853
766 1 0.149193 0.934222 0.0984849
767 1 0.153466 0.894367 0.14564
768 1 0.106875 0.943622 0.149523
769 1 0.202393 0.892526 0.0988086
770 1 0.257705 0.950273 0.0938495
771 1 0.247448 0.893819 0.152944
772 1 0.204524 0.949592 0.142097
773 1 0.292222 0.888148 0.100786
774 1 0.338695 0.948354 0.0939177
775 1 0.352589 0.899147 0.139007
776 1 0.296398 0.94358 0.151673
777 1 0.399253 0.898584 0.0889648
778 1 0.445222 0.946804 0.0919611
779 1 0.451677 0.900328 0.14198
780 1 0.401029 0.948945 0.139883
781 1 0.503665 0.895489 0.0952544
782 1 0.543192 0.95042 0.102809
783 1 0.549741 0.895394 0.144717
784 1 0.494515 0.950139 0.146422
785 1 0.605842 0.882646 0.0937067
786 1 0.645184 0.944272 0.102993
787 1 0.645281 0.892245 0.147405
788 1 0.596737 0.954582 0.142258
789 1 0.707709 0.898479 0.0954137
790 1 0.753256 0.948556 0.0963413
791 1 0.751308 0.902628 0.145002
792 1 0.703571 0.952066 0.153876
793 1 0.793958 0.889517 0.0971242
794 1 0.847552 0.949812 0.0915281
795 1 0.84859 0.896011 0.141573
796 1 0.796071 0.953063 0.146112
797 1 0.895836 0.902683 0.0945493
798 1 0.945817 0.951045 0.0904746
799 1 0.947197 0.900201 0.141385
800 1 0.896816 0.94721 0.13857
801 1 0.995313 0.992631 0.19984
802 1 0.0507676 0.0551486 0.19037
803 1 0.0452185 0.992135 0.244608
804 1 0.99771 0.0429448 0.243309
805 1 0.106515 0.991623 0.198015
806 1 0.149939 0.0436487 0.190227
807 1 0.156658 0.989561 0.242038
808 1 0.100595 0.0466482 0.236131
809 1 0.198146 0.00245493 0.192137
810 1 0.249121 0.0443501 0.197804
811 1 0.24371 0.00319351 0.246741
812 1 0.190608 0.0497596 0.243553
813 1 0.29522 0.997974 0.194624
814 1 0.342309 0.045557 0.201233
815 1 0.349149 0.99972 0.24276
816 1 0.298521 0.0435951 0.249594
817 1 0.404947 0.992904 0.196461
818 1 0.451131 0.0481276 0.195282
819 1 0.450373 0.990267 0.255102
820 1 0.401805 0.037469 0.244204
821 1 0.49196 0.995092 0.19572
822 1 0.544825 0.045392 0.199826
823 1 0.547471 0.996716 0.243555
824 1 0.491278 0.0452451 0.24861
825 1 0.595574 0.992286 0.198649
826 1 0.647291 0.0476403 0.193073
827 1 0.646616 0.00121318 0.248592
828 1 0.600462 0.0427804 0.254662
829 1 0.69933 0.00314539 0.200277
830 1 0.752802 0.0492813 0.203303
831 1 0.747583 0.992763 0.248759
832 1 0.700443 0.058747 0.243544
833 1 0.801816 0.995033 0.197277
834 1 0.85867 0.0444964 0.195505
835 1 0.850351 0.995292 0.247499
836 1 0.797411 0.0464081 0.247329
837 1 0.895088 0.990409 0.194834
838 1 0.947048 0.0449602 0.191299
839 1 0.94479 0.99497 0.240946
840 1 0.90524 0.049878 0.241596
841 1 0.99555 0.0938924 0.195434
842 1 0.0490999 0.134553 0.194681
843 1 0.0445219 0.100973 0.24835
844 1 0.98914 0.149001 0.247008
845 1 0.102987 0.0938284 0.19114
846 1 0.146513 0.144477 0.188741
847 1 0.15159 0.109428 0.244092
848 1 0.0932656 0.151019 0.25351
849 1 0.193521 0.0975956 0.195663
850 1 0.249788 0.14673 0.201307
851 1 0.240556 0.0932456 0.242845
852 1 0.211522 0.1532 0.251213
853 1 0.294726 0.0956643 0.198364
854 1 0.35116 0.149277 0.193762
855 1 0.344739 0.102663 0.244054
856 1 0.303006 0.150915 0.242198
857 1 0.39982 0.0898442 0.197406
858 1 0.445066 0.149039 0.19748
859 1 0.442245 0.097417 0.244769
860 1 0.394388 0.143016 0.255031
861 1 0.496128 0.103158 0.20325
862 1 0.546489 0.153308 0.209133
863 1 0.541228 0.0999085 0.251311
864 1 0.499491 0.150131 0.253693
865 1 0.593742 0.0990067 0.204654
866 1 0.643109 0.147332 0.202422
867 1 0.65281 0.103179 0.248597
868 1 0.601163 0.148393 0.256554
869 1 0.70306 0.109812 0.18911
870 1 0.755038 0.152447 0.190814
871 1 0.757787 0.105099 0.242251
872 1 0.698139 0.151414 0.248004
873 1 0.807228 0.0949963 0.199872
874 1 0.848639 0.152301 0.198424
875 1 0.852587 0.0994667 0.243154
876 1 0.800791 0.158757 0.243842
877 1 0.9018 0.0968626 0.195299
878 1 0.952204 0.139366 0.196246
879 1 0.951131 0.0957827 0.249868
880 1 0.90183 0.141015 0.247359
881 1 0.99436 0.194643 0.197033
882 1 0.0459874 0.254952 0.19503
883 1 0.0375281 0.198889 0.24344
884 1 0.99792 0.249461 0.238016
885 1 0.0836109 0.187151 0.20009
886 1 0.1457 0.241464 0.202349
887 1 0.14142 0.192348 0.243256
888 1 0.0942378 0.239135 0.242581
889 1 0.201644 0.192967 0.199945
890 1 0.249483 0.245816 0.199977
891 1 0.255805 0.19773 0.240744
892 1 0.199601 0.235092 0.244178