ITEM: TIMESTEP
67700
ITEM: NUMBER OF ATOMS
4000
ITEM: BOX BOUNDS pp pp pp
0.0000000000000000e+00 1.6795961913825074e+01
0.0000000000000000e+00 1.6795961913825074e+01
0.0000000000000000e+00 1.6795961913825074e+01
ITEM: ATOMS id type xs ys zs
1 1 0.786498 0.568593 0.578762
2 1 0.0303265 0.919457 0.155022
3 1 0.930289 0.644656 0.26488
4 1 0.510712 0.708441 0.845168
5 1 0.646897 0.402382 0.253047
6 1 0.80535 0.615319 0.535463
7 1 0.625697 0.239689 0.786663
8 1 0.396482 0.274526 0.162168
9 1 0.248242 0.292056 0.436613
10 1 0.184289 0.21184 0.473578
11 1 0.336299 0.770436 0.00170954
12 1 0.29055 0.785794 0.091205
13 1 0.00958141 0.124087 0.350308
14 1 0.286713 0.524061 0.951721
15 1 0.367478 0.966337 0.109746
16 1 0.461563 0.863972 0.378884
17 1 0.238838 0.295256 0.786129
18 1 0.548585 0.865187 0.932039
19 1 0.609631 0.684408 0.548188
20 1 0.706908 0.352617 0.0420429
21 1 0.22501 0.952532 0.832514
22 1 0.327555 0.325963 0.226474
23 1 0.689401 0.540323 0.297686
24 1 0.772833 0.112385 0.839308
25 1 0.947875 0.0501312 0.180309
26 1 0.896806 0.316586 0.290881
27 1 0.122356 0.991274 0.310192
28 1 0.452727 0.534782 0.00809556
29 1 0.264158 0.534873 0.174879
30 1 0.163336 0.896015 0.904279
31 1 0.445294 0.885202 0.0871203
32 1 0.541181 0.0733478 0.244837
33 1 0.83267 0.931687 0.313795
34 1 0.840493 0.062871 0.954827
35 1 0.0847582 0.0418534 0.425318
36 1 0.293525 0.285706 0.471486
37 1 0.364837 0.86108 0.918558
38 1 0.667796 0.875644 0.0262817
39 1 0.357549 0.0838885 0.0328443
40 1 0.169817 0.266608 0.498005
41 1 0.691285 0.0808052 0.319552
42 1 0.807824 0.898378 0.544898
43 1 0.963307 0.412975 0.53495
44 1 0.915851 0.431288 0.162459
45 1 0.703804 0.89487 0.894582
46 1 0.0109404 0.3348 0.438375
47 1 0.443592 0.48532 0.92305
48 1 0.957752 0.454256 0.354307
49 1 0.160587 0.256731 0.727065
50 1 0.867721 0.567725 0.256868
51 1 0.51359 0.392277 0.113657
52 1 0.523483 0.226408 0.365148
53 1 0.171509 0.0803974 0.375163
54 1 0.0700286 0.666717 0.762249
55 1 0.162284 0.267938 0.244832
56 1 0.129648 0.352894 0.458888
57 1 0.300479 0.326806 0.629035
58 1 0.527673 0.447042 0.128129
59 1 0.636316 0.455341 0.640151
60 1 0.372751 0.190611 0.3229
61 1 0.953744 0.718166 0.83587
62 1 0.872239 0.614757 0.573203
63 1 0.59895 0.0331034 0.286712
64 1 0.490312 0.348887 0.165431
65 1 0.442474 0.325924 0.956562
66 1 0.433537 0.810487 0.0639274
67 1 0.104377 0.432638 0.765768
68 1 0.889134 0.48396 0.139258
69 1 0.335238 0.853885 0.117042
70 1 0.523859 0.962967 0.863766
71 1 0.371519 0.251521 0.210815
72 1 0.188143 0.912712 0.264613
73 1 0.458818 0.10353 0.898913
74 1 0.328603 0.761369 0.204345
75 1 0.552988 0.498885 0.890831
76 1 0.707034 0.437534 0.0766133
77 1 0.364036 0.172585 0.266173
78 1 0.81571 0.629734 0.67021
79 1 0.928502 0.876085 0.227173
80 1 0.022861 0.162947 0.136546
81 1 0.778473 0.0381004 0.802457
82 1 0.0611036 0.577064 0.59606
83 1 0.215423 0.981104 0.761152
84 1 0.343384 0.237677 0.97468
85 1 0.88165 0.334612 0.724268
86 1 0.775472 0.093546 0.108826
87 1 0.751262 0.49404 0.0730953
88 1 0.123269 0.994526 0.938273
89 1 0.233548 0.651437 0.40716
90 1 0.807219 0.0113537 0.418161
91 1 0.0180653 0.118245 0.648314
92 1 0.163707 0.720929 0.986779
93 1 0.569538 0.810569 0.824701
94 1 0.183261 0.085651 0.701897
95 1 0.236433 0.762041 0.962785
96 1 0.654956 0.241993 0.200988
97 1 0.129905 0.304571 0.21374
98 1 0.285909 0.0706928 0.428288
99 1 0.137392 0.946603 0.504434
100 1 0.952761 0.0210482 0.511701
101 1 0.664476 0.127061 0.48752
102 1 0.40173 0.0252867 0.373974
103 1 0.828372 0.49901 0.210632
104 1 0.149219 0.939466 0.0265953
105 1 0.977192 0.328499 0.760301
106 1 0.118198 0.345891 0.680895
107 1 0.473362 0.682968 0.764972
108 1 0.789434 0.222331 0.294876
109 1 0.452685 0.932702 0.403003
110 1 0.755653 0.810237 0.364341
111 1 0.508839 0.904763 0.982844
112 1 0.691719 0.969639 0.353297
113 1 0.316218 0.269931 0.236717
114 1 0.759897 0.34027 0.924356
115 1 0.678323 0.188136 0.359233
116 1 0.106945 0.404915 0.692693
117 1 0.336729 0.391052 0.0744258
118 1 0.392007 0.152159 0.635967
119 1 0.109151 0.0824132 0.224866
120 1 0.553008 0.540592 0.980929
121 1 0.816871 0.770462 0.183344
122 1 0.11108 0.572794 0.120614
123 1 0.987664 0.582729 0.995693
124 1 0.30927 0.64899 0.655684
125 1 0.48689 0.399591 0.388084
126 1 0.135271 0.539594 0.317617
127 1 0.0958693 0.798488 0.711151
128 1 0.830851 0.75938 0.857156
129 1 0.927007 0.494839 0.646648
130 1 0.924759 0.589822 0.360223
131 1 0.206612 0.536005 0.207074
132 1 0.455904 0.782586 0.176253
133 1 0.291931 0.776837 0.871682
134 1 0.845468 0.584477 0.748279
135 1 0.559503 0.519653 0.165587
136 1 0.467372 0.856287 0.76733
137 1 0.455627 0.0211252 0.287193
138 1 0.261701 0.835566 0.388631
139 1 0.841305 0.599996 0.113806
140 1 0.737951 0.958876 0.784322
141 1 0.982019 0.474493 0.558315
142 1 0.793352 0.116277 0.266092
143 1 0.15256 0.254338 0.623936
144 1 0.697851 0.488148 0.563031
145 1 0.0778696 0.371513 0.104728
146 1 0.751689 0.91524 0.151389
147 1 0.87472 0.315282 0.0225671
148 1 0.243271 0.449885 0.103389
149 1 0.860169 0.42246 0.189935
150 1 0.720238 0.650861 0.222902
151 1 0.81501 0.786381 0.242499
152 1 0.666584 0.835758 0.0853527
153 1 0.525728 0.583933 0.638575
154 1 0.135813 0.342501 0.0237258
155 1 0.770262 0.0877123 0.349154
156 1 0.0851349 0.0448856 0.719373
157 1 0.704872 0.137469 0.0787171
158 1 0.0540796 0.229518 0.626106
159 1 0.413221 0.981051 0.0666446
160 1 0.194107 0.173074 0.10728
161 1 0.887719 0.29614 0.150329
162 1 0.838269 0.534303 0.942707
163 1 0.0237814 0.027073 0.159591
164 1 0.976773 0.829002 0.580702
165 1 0.728518 0.687619 0.0804193
166 1 0.529756 0.0879711 0.171941
167 1 0.934835 0.260532 0.208731
168 1 0.0202331 0.705667 0.718831
169 1 0.894836 0.626072 0.942549
170 1 0.0508246 0.48078 0.570322
171 1 0.328646 0.476273 0.197839
172 1 0.203244 0.511384 0.511204
173 1 0.171223 0.661981 0.824715
174 1 0.996789 0.774678 0.243864
175 1 0.416779 0.358013 0.274426
176 1 0.121241 0.873624 0.704587
177 1 0.896051 0.663035 0.884678
178 1 0.813208 0.850376 0.363503
179 1 0.404236 0.606726 0.913905
180 1 0.981709 0.578669 0.315441
181 1 0.0549782 0.744609 0.352155
182 1 0.650769 0.336993 0.64359
183 1 0.171922 0.349054 0.266837
184 1 0.655115 0.695201 0.00188275
185 1 0.915027 0.864724 0.379877
186 1 0.958357 0.316367 0.434792
187 1 0.423802 0.407932 0.00819725
188 1 0.119212 0.308867 0.981272
189 1 0.839995 0.673523 0.120088
190 1 0.29478 0.504878 0.0364662
191 1 0.488744 0.0869725 0.706115
192 1 0.794718 0.721519 0.409477
193 1 0.586206 0.0563764 0.027749
194 1 0.984463 0.711222 0.00209641
195 1 0.423775 0.308593 0.344179
196 1 0.704514 0.526804 0.061574
197 1 0.382357 0.253085 0.33727
198 1 0.335107 0.736253 0.861198
199 1 0.394698 0.796939 0.702716
200 1 0.745024 0.0444449 0.439277
201 1 0.33478 0.192841 0.905652
202 1 0.979008 0.79897 0.168904
203 1 0.160763 0.535284 0.906174
204 1 0.128991 0.389764 0.121443
205 1 0.497906 0.545346 0.599008
206 1 0.620925 0.330334 0.0313761
207 1 0.0719246 0.0136932 0.25418
208 1 0.190235 0.743851 0.918746
209 1 0.051687 0.259464 0.414945
210 1 0.499904 0.894544 0.26669
211 1 0.0835578 0.377618 0.544397
212 1 0.814595 0.996665 0.479437
213 1 0.672496 0.816627 0.897266
214 1 0.0169327 0.913104 0.790862
215 1 0.869024 0.160199 0.996661
216 1 0.960577 0.689774 0.289766
217 1 0.329743 0.508907 0.34027
218 1 0.466687 0.163989 0.194361
219 1 0.393373 0.827972 0.290347
220 1 0.399436 0.89278 0.488799
221 1 0.273646 0.00246719 0.759002
222 1 0.232228 0.809204 0.612138
223 1 0.750653 0.604224 0.259481
224 1 0.320426 0.713998 0.718918
225 1 0.566018 0.975842 0.990583
226 1 0.390246 0.0330524 0.891101
227 1 0.361744 0.0154647 0.16226
228 1 0.109476 0.371463 0.969503
229 1 0.293193 0.3264 0.7605
230 1 0.240541 0.0121246 0.333904
231 1 0.808764 0.538385 0.0547095
232 1 0.890396 0.16243 0.290051
233 1 0.866994 0.64604 0.176561
234 1 0.0222865 0.206321 0.532559
235 1 0.830507 0.317031 0.929051
236 1 0.882781 0.266926 0.245643
237 1 0.817357 0.330256 0.63817
238 1 0.499989 0.757859 0.940225
239 1 0.702491 0.390431 0.104467
240 1 0.798422 0.466367 0.0883177
241 1 0.778961 0.842712 0.0212911
242 1 0.415328 0.71589 0.777303
243 1 0.758877 0.051586 0.66788
244 1 0.186429 0.864909 0.231289
245 1 0.0298277 0.758064 0.822779
246 1 0.0738155 0.656603 0.902399
247 1 0.281598 0.0336849 0.956539
248 1 0.750851 0.643984 0.955696
249 1 0.228199 0.220485 0.11745
250 1 0.68316 0.589961 0.974723
251 1 0.292352 0.812286 0.706731
252 1 0.902305 0.917303 0.265793
253 1 0.338038 0.972286 0.556025
254 1 0.0638731 0.289279 0.861826
255 1 0.244321 0.188542 0.260397
256 1 0.31286 0.385913 0.227784
257 1 0.175956 0.485889 0.208995
258 1 0.725452 0.479585 0.47163
259 1 0.332348 0.319597 0.0969214
260 1 0.219407 0.614209 0.369072
261 1 0.294966 0.464273 0.141693
262 1 0.65437 0.508841 0.0433738
263 1 0.288599 0.701975 0.429214
264 1 0.175143 0.447177 0.832075
265 1 0.543384 0.489157 0.948998
266 1 0.312589 0.529846 0.622331
267 1 0.228254 0.310971 0.942299
268 1 0.646446 0.989368 0.309615
269 1 0.0416994 0.0978836 0.128874
270 1 0.39253 0.787949 0.118077
271 1 0.453084 0.250978 0.52324
272 1 0.346297 0.195149 0.0875795
273 1 0.34794 0.0789356 0.785665
274 1 0.595541 0.376079 0.912053
275 1 0.292182 0.0808588 0.591913
276 1 0.0304286 0.71157 0.405391
277 1 0.845482 0.281381 0.0832381
278 1 0.736428 0.523665 0.754608
279 1 0.426318 0.278494 0.38823
280 1 0.266637 0.980918 0.98477
281 1 0.641427 0.850514 0.502563
282 1 0.185543 0.753729 0.762759
283 1 0.690296 0.991374 0.798905
284 1 0.452867 0.857338 0.486594
285 1 0.850996 0.679549 0.53669
286 1 0.941519 0.644381 0.832283
287 1 0.205277 0.221637 0.287509
288 1 0.266303 0.49436 0.688436
289 1 0.618665 0.67923 0.248597
290 1 0.638151 0.87761 0.173294
291 1 0.191738 0.753886 0.376074
292 1 0.601539 0.0555495 0.876454
293 1 0.335835 0.785154 0.278527
294 1 0.726963 0.706167 0.965579
295 1 0.274356 0.459668 0.221433
296 1 0.950297 0.483524 0.791328
297 1 0.822226 0.691409 0.882769
298 1 0.39524 0.083638 0.363064
299 1 0.31351 0.180589 0.316556
300 1 0.77026 0.716209 0.475603
301 1 0.17553 0.327525 0.652335
302 1 0.535866 0.32399 0.976778
303 1 0.39391 0.0275266 0.305893
304 1 0.929451 0.32398 0.694909
305 1 0.665518 0.725898 0.927812
306 1 0.476512 0.655355 0.623821
307 1 0.371826 0.514327 0.161323
308 1 0.373891 0.933162 0.730054
309 1 0.568597 0.452857 0.550247
310 1 0.512582 0.099983 0.649146
311 1 0.139362 0.718275 0.175732
312 1 0.277577 0.232459 0.220233
313 1 0.231694 0.409413 0.999458
314 1 0.935426 0.819315 0.616151
315 1 0.389536 0.0253886 0.0939533
316 1 0.678858 0.202117 0.640476
317 1 0.83967 0.825767 0.775012
318 1 0.448794 0.625418 0.100597
319 1 0.33911 0.473955 0.782915
320 1 0.5737 0.694222 0.0457718
321 1 0.146615 0.905854 0.448312
322 1 0.665108 0.876425 0.276603
323 1 0.291383 0.399824 0.517861
324 1 0.0288619 0.84581 0.333405
325 1 0.047776 0.843168 0.264816
326 1 0.268624 0.713105 0.506488
327 1 0.337365 0.648471 0.739147
328 1 0.00921048 0.735617 0.313539
329 1 0.42658 0.74768 0.208946
330 1 0.809544 0.460358 0.537236
331 1 0.221528 0.45956 0.46737
332 1 0.378425 0.0225974 0.76798
333 1 0.67882 0.647487 0.0831033
334 1 0.859559 0.797138 0.393318
335 1 0.81459 0.0298442 0.358374
336 1 0.353075 0.946731 0.178886
337 1 0.80844 0.570035 0.998835
338 1 0.284548 0.920526 0.1608
339 1 0.297159 0.388556 0.789316
340 1 0.914436 0.99318 0.476243
341 1 0.367254 0.648866 0.354196
342 1 0.409042 0.967215 0.165054
343 1 0.814454 0.501649 0.48866
344 1 0.398336 0.995342 0.969672
345 1 0.909674 0.893274 0.960324
346 1 0.239068 0.701545 0.561861
347 1 0.644577 0.14132 0.0687619
348 1 0.88491 0.187096 0.842855
349 1 0.512271 0.911991 0.387302
350 1 0.951879 0.681485 0.186431
351 1 0.696433 0.93877 0.461373
352 1 0.760154 0.809855 0.6489
353 1 0.139136 0.807322 0.744107
354 1 0.609238 0.741867 0.00558898
355 1 0.882246 0.807158 0.817871
356 1 0.927073 0.371299 0.633747
357 1 0.306035 0.240779 0.344574
358 1 0.385152 0.353045 0.392558
359 1 0.000930869 0.431682 0.962636
360 1 0.0384432 0.232755 0.276323
361 1 0.107874 0.292862 0.0363879
362 1 0.759253 0.432451 0.811763
363 1 0.870352 0.903119 0.790516
364 1 0.83601 0.266604 0.957086
365 1 0.268157 0.897538 0.580044
366 1 0.0911518 0.766337 0.846416
367 1 0.852319 0.0204805 0.583469
368 1 0.928442 0.297524 0.48958
369 1 0.35413 0.865521 0.860388
370 1 0.814886 0.641865 0.778711
371 1 0.306918 0.818842 0.0270373
372 1 0.768278 0.327856 0.0587736
373 1 0.460537 0.767467 0.256972
374 1 0.635065 0.474157 0.858136
375 1 0.28916 0.423391 0.890814
376 1 0.390066 0.723416 0.355222
377 1 0.221605 0.693846 0.944111
378 1 0.171376 0.137351 0.144482
379 1 0.108146 0.286168 0.474257
380 1 0.853037 0.80827 0.918152
381 1 0.946148 0.0494074 0.903626
382 1 0.570999 0.0639581 0.129167
383 1 0.0874519 0.101071 0.908438
384 1 0.916854 0.0877945 0.0575049
385 1 0.484535 0.0717963 0.959058
386 1 0.342981 0.503987 0.102172
387 1 0.0854108 0.175424 0.902674
388 1 0.420698 0.213858 0.482905
389 1 0.111625 0.542471 0.621782
390 1 0.881821 0.473466 0.802189
391 1 0.0951438 0.0476988 0.99582
392 1 0.0865805 0.0258848 0.662946
393 1 0.457746 0.629143 0.464691
394 1 0.50817 0.445899 0.708628
395 1 0.425103 0.326731 0.178759
396 1 0.74529 0.262153 0.200427
397 1 0.15142 0.474802 0.746536
398 1 0.0622866 0.411506 0.233944
399 1 0.354452 0.130123 0.360434
400 1 0.781483 0.118967 0.0499079
401 1 0.931521 0.152296 0.835462
402 1 0.378448 0.907836 0.658386
403 1 0.908544 0.775588 0.166179
404 1 0.561937 0.360117 0.344663
405 1 0.550633 0.202901 0.212117
406 1 0.663376 0.0328424 0.836227
407 1 0.314139 0.7447 0.403543
408 1 0.584944 0.915463 0.418757
409 1 0.944901 0.0347683 0.241608
410 1 0.0891185 0.190392 0.284181
411 1 0.963096 0.836046 0.362421
412 1 0.523745 0.242413 0.596246
413 1 0.511222 0.198627 0.0368411
414 1 0.00154649 0.826669 0.989179
415 1 0.789749 0.332363 0.810211
416 1 0.364538 0.0631557 0.19649
417 1 0.204956 0.547842 0.144888
418 1 0.323536 0.499515 0.255834
419 1 0.743236 0.951034 0.705818
420 1 0.274205 0.622641 0.565858
421 1 0.543036 0.408309 0.234648
422 1 0.575334 0.0802605 0.518055
423 1 0.813615 0.21972 0.930332
424 1 0.623121 0.182675 0.38199
425 1 0.106483 0.000773701 0.490512
426 1 0.607042 0.0157135 0.478019
427 1 0.594325 0.655914 0.361824
428 1 0.192534 0.804802 0.942708
429 1 0.8405 0.865254 0.0587215
430 1 0.594405 0.341707 0.140413
431 1 0.85025 0.862323 0.12787
432 1 0.228213 0.389092 0.648451
433 1 0.077792 0.0315203 0.595682
434 1 0.666021 0.850793 0.567397
435 1 0.0704027 0.439088 0.403233
436 1 0.026187 0.266797 0.925333
437 1 0.343654 0.0076158 0.492017
438 1 0.443668 0.558523 0.702303
439 1 0.469064 0.419807 0.848133
440 1 0.146162 0.544548 0.227335
441 1 0.846656 0.0778803 0.381082
442 1 0.109549 0.77981 0.0668229
443 1 0.728583 0.906022 0.265707
444 1 0.26644 0.265284 0.735223
445 1 0.10305 0.197622 0.624852
446 1 0.937689 0.0067458 0.103734
447 1 0.625848 0.119116 0.697015
448 1 0.807646 0.186441 0.528879
449 1 0.0340262 0.209358 0.0828026
450 1 0.236723 0.654069 0.739746
451 1 0.804068 0.561017 0.903745
452 1 0.523421 0.149736 0.173628
453 1 0.199327 0.304665 0.0818721
454 1 0.0684494 0.192941 0.956971
455 1 0.179176 0.603133 0.187186
456 1 0.68726 0.873925 0.744211
457 1 0.999019 0.0774847 0.540218
458 1 0.44036 0.429755 0.437496
459 1 0.64338 0.977973 0.0762078
460 1 0.984471 0.0379316 0.787401
461 1 0.301108 0.872904 0.460523
462 1 0.11504 0.106348 0.972364
463 1 0.248814 0.622414 0.497785
464 1 0.0636164 0.585751 0.858349
465 1 0.835708 0.146659 0.638016
466 1 0.898047 0.102813 0.311089
467 1 0.978479 0.970055 0.842422
468 1 0.520122 0.156866 0.672943
469 1 0.135464 0.217925 0.521842
470 1 0.920002 0.870003 0.742524
471 1 0.929429 0.104859 0.172658
472 1 0.663181 0.473723 0.255348
473 1 0.863899 0.124695 0.0458159
474 1 0.303788 0.0559374 0.726956
475 1 0.469291 0.834103 0.268393
476 1 0.740377 0.0207919 0.0412422
477 1 0.625454 0.0638587 0.335663
478 1 0.32795 0.322875 0.296419
479 1 0.787925 0.985074 0.779974
480 1 0.523833 0.271064 0.0187515
481 1 0.26873 0.312358 0.994724
482 1 0.756561 0.11519 0.986134
483 1 0.151235 0.858035 0.956523
484 1 0.426258 0.973809 0.324212
485 1 0.889745 0.340996 0.517335
486 1 0.915096 0.521602 0.891644
487 1 0.883934 0.625636 0.231179
488 1 0.0672794 0.970471 0.962365
489 1 0.823263 0.0638033 0.896479
490 1 0.282021 0.481885 0.792899
491 1 0.606372 0.737284 0.61322
492 1 0.343077 0.13501 0.194795
493 1 0.117676 0.911034 0.568787
494 1 0.419005 0.956118 0.924924
495 1 0.405306 0.0989054 0.590006
496 1 0.447764 0.806231 0.00751591
497 1 0.376137 0.749808 0.171335
498 1 0.00584561 0.968555 0.358632
499 1 0.89698 0.0190209 0.0491137
500 1 0.478871 0.656662 0.887359
501 1 0.442685 0.92895 0.277652
502 1 0.273119 0.0375603 0.0718821
503 1 0.327351 0.476672 0.997327
504 1 0.686253 0.882871 0.111881
505 1 0.710762 0.401916 0.47803
506 1 0.405678 0.295399 0.501631
507 1 0.168099 0.567997 0.716952
508 1 0.510915 0.994683 0.141964
509 1 0.581429 0.471882 0.123488
510 1 0.348279 0.890109 0.272518
511 1 0.146234 0.781615 0.169859
512 1 0.0465233 0.48466 0.227685
513 1 0.578521 0.357012 0.198182
514 1 0.356898 0.194606 0.512774
515 1 0.462797 0.959871 0.13257
516 1 0.763447 0.468356 0.25591
517 1 0.474497 0.322119 0.843052
518 1 0.515851 0.834226 0.712231
519 1 0.320381 0.648457 0.324272
520 1 0.368658 0.805778 0.654698
521 1 0.712255 0.424612 0.0097401
522 1 0.00667005 0.228595 0.367865
523 1 0.9768 0.230265 0.0308362
524 1 0.884022 0.228228 0.970751
525 1 0.813855 0.699391 0.806311
526 1 0.47037 0.260786 0.917708
527 1 0.357761 0.682734 0.0744915
528 1 0.111975 0.354127 0.889813
529 1 0.0428584 0.323751 0.38633
530 1 0.600949 0.449135 0.800897
531 1 0.165692 0.291017 0.392204
532 1 0.0899981 0.264648 0.591166
533 1 0.736031 0.491542 0.92549
534 1 0.652094 0.978889 0.472373
535 1 0.19425 0.409661 0.0557827
536 1 0.353162 0.126198 0.565052
537 1 0.377111 0.367263 0.783359
538 1 0.330475 0.719512 0.0243911
539 1 0.235177 0.621286 0.0174676
540 1 0.397219 0.676415 0.954761
541 1 0.597293 0.456222 0.960921
542 1 0.50071 0.587679 0.0767768
543 1 0.647783 0.131501 0.593209
544 1 0.840219 0.342037 0.313531
545 1 0.396217 0.417165 0.316887
546 1 0.268551 0.484888 0.34939
547 1 0.465823 0.611189 0.8175
548 1 0.927185 0.133165 0.964513
549 1 0.776581 0.738164 0.867528
550 1 0.866547 0.829426 0.169312
551 1 0.978834 0.302494 0.310653
552 1 0.0127598 0.215057 0.145976
553 1 0.883127 0.428139 0.0341145
554 1 0.737321 0.587836 0.465212
555 1 0.783061 0.363783 0.252083
556 1 0.939514 0.998195 0.946138
557 1 0.157467 0.392799 0.816081
558 1 0.772091 0.155412 0.66756
559 1 0.889297 0.908974 0.0221219
560 1 0.909448 0.220143 0.593555
561 1 0.84544 0.079232 0.719842
562 1 0.941903 0.277096 0.265401
563 1 0.0393348 0.423236 0.116942
564 1 0.448661 0.794759 0.368877
565 1 0.0171276 0.653949 0.213835
566 1 0.54859 0.756534 0.591681
567 1 0.492365 0.263943 0.63816
568 1 0.819136 0.569145 0.688645
569 1 0.981867 0.0113696 0.654853
570 1 0.915748 0.520359 0.835541
571 1 0.116944 0.749617 0.0057305
572 1 0.308363 0.839254 0.891257
573 1 0.18071 0.573901 0.34545
574 1 0.36692 0.354412 0.651937
575 1 0.0816324 0.691786 0.375985
576 1 0.0796201 0.89975 0.943679
577 1 0.187711 0.415083 0.12459
578 1 0.25879 0.269613 0.838124
579 1 0.266152 0.51328 0.107656
580 1 0.839825 0.498527 0.75577
581 1 0.233186 0.532864 0.804322
582 1 0.536807 0.316612 0.860035
583 1 0.438901 0.146961 0.948115
584 1 0.115124 0.566069 0.176583
585 1 0.408797 0.737233 0.839435
586 1 0.0540539 0.323021 0.0101181
587 1 0.200648 0.971682 0.370783
588 1 0.930179 0.0428826 0.370872
589 1 0.0461164 0.602188 0.756143
590 1 0.109306 0.230223 0.0752573
591 1 0.411853 0.0807856 0.934706
592 1 0.669055 0.62273 0.922945
593 1 0.694892 0.259994 0.646312
594 1 0.830161 0.183238 0.318679
595 1 0.270246 0.562421 0.00856397
596 1 0.946282 0.215352 0.702524
597 1 0.00533475 0.985767 0.955794
598 1 0.32815 0.642579 0.129417
599 1 0.772944 0.00403786 0.165621
600 1 0.641341 0.799682 0.5362
601 1 0.0748163 0.22184 0.175145
602 1 0.293018 0.909754 0.511493
603 1 0.242583 0.837842 0.738085
604 1 0.504922 0.80832 0.103552
605 1 0.107385 0.851205 0.401859
606 1 0.385796 0.31735 0.0609073
607 1 0.762125 0.495517 0.85291
608 1 0.294632 0.173304 0.0741588
609 1 0.109077 0.697595 0.030472
610 1 0.00776639 0.35213 0.243136
611 1 0.60235 0.798601 0.222902
612 1 0.40987 0.536137 0.0791178
613 1 0.250641 0.891588 0.377822
614 1 0.125021 0.412284 0.0298705
615 1 0.551669 0.824832 0.547867
616 1 0.133243 0.48502 0.897231
617 1 0.414466 0.472175 0.764082
618 1 0.308446 0.60756 0.614519
619 1 0.23151 0.710575 0.410852
620 1 0.137312 0.87947 0.346162
621 1 0.752851 0.414751 0.354296
622 1 0.490644 0.343544 0.489056
623 1 0.00155085 0.342591 0.0249114
624 1 0.393177 0.391621 0.697781
625 1 0.12872 0.699107 0.429197
626 1 0.469408 0.367111 0.886888
627 1 0.94423 0.426881 0.699963
628 1 0.108497 0.495392 0.263863
629 1 0.632581 0.128938 0.208722
630 1 0.463687 0.924288 0.339327
631 1 0.727524 0.863618 0.307402
632 1 0.808466 0.826593 0.953436
633 1 0.969905 0.217373 0.561464
634 1 0.183574 0.310713 0.316053
635 1 0.893238 0.497023 0.196574
636 1 0.642655 0.763785 0.187643
637 1 0.806777 0.0345214 0.62348
638 1 0.693133 0.914775 0.173903
639 1 0.728922 0.00266378 0.908047
640 1 0.335541 0.13731 0.495719
641 1 0.396892 0.523942 0.788595
642 1 0.852513 0.663784 0.429267
643 1 0.568847 0.625935 0.107096
644 1 0.922863 0.453693 0.0837469
645 1 0.0892279 0.8385 0.467549
646 1 0.451591 0.442577 0.044823
647 1 0.683857 0.176194 0.189785
648 1 0.749585 0.765363 0.499272
649 1 0.050265 0.820124 0.0348231
650 1 0.974195 0.383238 0.991715
651 1 0.0402516 0.832818 0.105172
652 1 0.610331 0.837897 0.280641
653 1 0.682368 0.67797 0.135112
654 1 0.904173 0.122932 0.106527
655 1 0.447984 0.683465 0.232134
656 1 0.418141 0.580079 0.82394
657 1 0.287834 0.0729851 0.222783
658 1 0.987159 0.564546 0.573366
659 1 0.429605 0.320517 0.887367
660 1 0.465338 0.734927 0.813162
661 1 0.195731 0.689718 0.78095
662 1 0.0601238 0.496665 0.379854
663 1 0.488489 0.737583 0.198558
664 1 0.0399236 0.82167 0.887864
665 1 0.878466 0.576558 0.435469
666 1 0.985329 0.85295 0.238674
667 1 0.338202 0.306356 0.553094
668 1 0.238948 0.380825 0.155442
669 1 0.877919 0.340403 0.105258
670 1 0.728799 0.359709 0.526898
671 1 0.549352 0.328724 0.0439481
672 1 0.714461 0.0280189 0.18968
673 1 0.816771 0.789753 0.624678
674 1 0.184725 0.71652 0.142648
675 1 0.37491 0.0143697 0.0285978
676 1 0.310267 0.40859 0.420477
677 1 0.608377 0.471706 0.022065
678 1 0.886949 0.765841 0.885554
679 1 0.0109731 0.989825 0.295207
680 1 0.90597 0.902065 0.177707
681 1 0.351455 0.763606 0.568975
682 1 0.88455 0.984425 0.625396
683 1 0.379363 0.93557 0.826989
684 1 0.730389 0.963552 0.292478
685 1 0.0364389 0.704952 0.965285
686 1 0.119956 0.479459 0.367319
687 1 0.972031 0.529717 0.515456
688 1 0.0656734 0.214777 0.0160981
689 1 0.278769 0.255844 0.927508
690 1 0.343312 0.0895913 0.686851
691 1 0.834787 0.0395977 0.524094
692 1 0.557418 0.68491 0.651024
693 1 0.395759 0.540601 0.887508
694 1 0.390598 0.137618 0.0465609
695 1 0.879936 0.108016 0.814735
696 1 0.320754 0.804787 0.380558
697 1 0.740238 0.189833 0.165355
698 1 0.0556238 0.520497 0.754189
699 1 0.613687 0.776226 0.068028
700 1 0.622486 0.00361741 0.393216
701 1 0.45527 0.759475 0.42772
702 1 0.177058 0.0933253 0.901841
703 1 0.413117 0.618336 0.425782
704 1 0.68123 0.612029 0.863768
705 1 0.985215 0.8412 0.123959
706 1 0.733785 0.436424 0.420812
707 1 0.721511 0.232855 0.491472
708 1 0.762928 0.0971031 0.745258
709 1 0.124423 0.326083 0.0845646
710 1 0.920001 0.79351 0.0768407
711 1 0.158784 0.0417981 0.998847
712 1 0.814259 0.747011 0.916798
713 1 0.41905 0.603005 0.54362
714 1 0.832202 0.595797 0.806991
715 1 0.282753 0.54766 0.716575
716 1 0.322468 0.628383 0.884559
717 1 0.383137 0.955914 0.6035
718 1 0.312047 0.00480834 0.808745
719 1 0.892123 0.186323 0.667892
720 1 0.976799 0.788441 0.825374
721 1 0.951412 0.909006 0.622184
722 1 0.461616 0.938663 0.962733
723 1 0.47762 0.842104 0.150984
724 1 0.702396 0.682194 0.462411
725 1 0.736019 0.914114 0.0856618
726 1 0.26167 0.146907 0.721666
727 1 0.202206 0.106825 0.495849
728 1 0.759846 0.519514 0.169466
729 1 0.658724 0.386837 0.520199
730 1 0.383678 0.596088 0.771799
731 1 0.274573 0.704645 0.233872
732 1 0.952533 0.615378 0.19369
733 1 0.368486 0.70551 0.42986
734 1 0.991728 0.807943 0.654555
735 1 0.972616 0.322591 0.0956328
736 1 0.313639 0.87163 0.0616282
737 1 0.13465 0.694358 0.758637
738 1 0.209169 0.91828 0.597603
739 1 0.502376 0.557086 0.0181028
740 1 0.186808 0.755719 0.095799
741 1 0.761016 0.562125 0.644504
742 1 0.588272 0.334701 0.409494
743 1 0.00896655 0.289669 0.249332
744 1 0.470027 0.300431 0.597255
745 1 0.488181 0.944319 0.564446
746 1 0.597839 0.0848487 0.255816
747 1 0.179723 0.368468 0.388933
748 1 0.11882 0.569462 0.509924
749 1 0.669353 0.274491 0.953811
750 1 0.943012 0.352487 0.327411
751 1 0.961742 0.740878 0.939061
752 1 0.00011993 0.570618 0.209973
753 1 0.35009 0.0768506 0.252004
754 1 0.905623 0.581687 0.799385
755 1 0.86727 0.394683 0.397302
756 1 0.157567 0.416927 0.566875
757 1 0.566627 0.900112 0.366149
758 1 0.927633 0.952857 0.806089
759 1 0.461962 0.177699 0.00215525
760 1 0.809542 0.0940547 0.66246
761 1 0.843671 0.495802 0.585824
762 1 0.135793 0.195863 0.189879
763 1 0.131709 0.47318 0.0238125
764 1 0.447418 0.286116 0.279078
765 1 0.833972 0.326946 0.763003
766 1 0.124515 0.21963 0.0190274
767 1 0.569632 0.550381 0.915556
768 1 0.0998477 0.946925 0.345491
769 1 0.979724 0.984354 0.899185
770 1 0.0819121 0.324073 0.572901
771 1 0.647119 0.927718 0.944202
772 1 0.300463 0.264511 0.682997
773 1 0.554339 0.803294 0.264176
774 1 0.944967 0.494038 0.971442
775 1 0.0319655 0.992439 0.453919
776 1 0.312913 0.980338 0.396031
777 1 0.727794 0.0671458 0.830572
778 1 0.589802 0.755566 0.790123
779 1 0.335582 0.699547 0.287258
780 1 0.63281 0.878811 0.401776
781 1 0.574539 0.613841 0.9561
782 1 0.631241 0.307973 0.587474
783 1 0.60241 0.176014 0.44588
784 1 0.134235 0.776293 0.949261
785 1 0.738912 0.550735 0.277003
786 1 0.743594 0.182243 0.0477852
787 1 0.839593 0.10148 0.43825
788 1 0.458157 0.0135737 0.0561144
789 1 0.596037 0.282173 0.484954
790 1 0.354849 0.36819 0.442631
791 1 0.0867334 0.130932 0.445782
792 1 0.22291 0.944581 0.545085
793 1 0.854199 0.988819 0.313532
794 1 0.6362 0.66861 0.942186
795 1 0.184319 0.734699 0.26813
796 1 0.670555 0.724584 0.715557
797 1 0.88748 0.679742 0.0670248
798 1 0.0397961 0.834726 0.604306
799 1 0.296206 0.991522 0.181363
800 1 0.611105 0.269989 0.0763685
801 1 0.66618 0.853338 0.674335
802 1 0.211051 0.81897 0.348579
803 1 0.162873 0.165163 0.050109
804 1 0.418816 0.263809 0.0792488
805 1 0.553831 0.256682 0.0668227
806 1 0.246796 0.514087 0.638804
807 1 0.154681 0.29996 0.581923
808 1 0.412407 0.336562 0.010234
809 1 0.36577 0.439676 0.024133
810 1 0.167368 0.979746 0.122279
811 1 0.0656683 0.337608 0.63868
812 1 0.247242 0.0237866 0.627671
813 1 0.377655 0.955282 0.513198
814 1 0.341573 0.399587 0.932475
815 1 0.428082 0.259752 0.635092
816 1 0.157179 0.0907741 0.318152
817 1 0.650351 0.822395 0.31766
818 1 0.416515 0.279238 0.00613657
819 1 0.34463 0.758704 0.449294
820 1 0.0618129 0.649936 0.24609
821 1 0.950013 0.120188 0.442303
822 1 0.196869 0.151575 0.730043
823 1 0.507834 0.0809813 0.402791
824 1 0.191488 0.327582 0.031655
825 1 0.873092 0.834297 0.344109
826 1 0.790602 0.696371 0.753153
827 1 0.114511 0.608289 0.221478
828 1 0.51024 0.828151 0.593064
829 1 0.943982 0.202849 0.640795
830 1 0.955744 0.852767 0.9416
831 1 0.595798 0.0860097 0.18486
832 1 0.127854 0.0905242 0.167432
833 1 0.462109 0.986479 0.376539
834 1 0.27993 0.197358 0.741183
835 1 0.0845227 0.51112 0.668851
836 1 0.755139 0.664104 0.28599
837 1 0.776951 0.81148 0.0736923
838 1 0.973907 0.234681 0.497213
839 1 0.96131 0.818527 0.771726
840 1 0.626518 0.882666 0.335743
841 1 0.336749 0.996772 0.947604
842 1 0.311534 0.110967 0.744952
843 1 0.181465 0.974246 0.234829
844 1 0.233189 0.67326 0.0581547
845 1 0.275869 0.322331 0.144052
846 1 0.188956 0.858661 0.752623
847 1 0.476223 0.916884 0.771939
848 1 0.959505 0.524912 0.225973
849 1 0.288231 0.136127 0.604246
850 1 0.113658 0.261049 0.422359
851 1 0.686849 0.074943 0.966382
852 1 0.597805 0.874423 0.221782
853 1 0.974939 0.785644 0.107561
854 1 0.720558 0.269668 0.116192
855 1 0.0049498 0.0303583 0.222441
856 1 0.101845 0.121281 0.118301
857 1 0.243193 0.363221 0.441435
858 1 0.0344732 0.256223 0.0425473
859 1 0.315078 0.0683395 0.541382
860 1 0.548597 0.516473 0.572494
861 1 0.865223 0.15087 0.349409
862 1 0.584308 0.390683 0.518836
863 1 0.633624 0.788096 0.359713
864 1 0.419992 0.29044 0.572466
865 1 0.688062 0.339758 0.216578
866 1 0.100185 0.845084 0.568616
867 1 0.882848 0.238776 0.163131
868 1 0.820494 0.922327 0.494931
869 1 0.0614601 0.945677 0.273322
870 1 0.358774 0.375357 0.134309
871 1 0.710443 0.567277 0.162223
872 1 0.781068 0.88581 0.944953
873 1 0.465393 0.166168 0.137614
874 1 0.708692 0.342298 0.61792
875 1 0.618836 0.564381 0.967037
876 1 0.515509 0.910845 0.920149
877 1 0.720065 0.811514 0.0567488
878 1 0.0473471 0.924335 0.334502
879 1 0.0815807 0.12818 0.174397
880 1 0.912403 0.996111 0.410516
881 1 0.767504 0.657507 0.446658
882 1 0.884603 0.500474 0.945393
883 1 0.517172 0.587739 0.787981
884 1 0.830218 0.702269 0.0427584
885 1 0.627995 0.649824 0.480374
886 1 0.94499 0.1279 0.90817
887 1 0.724461 0.116968 0.682629
888 1 0.503757 0.869456 0.0940092
889 1 0.00351045 0.266314 0.452416
890 1 0.838996 0.777939 0.973324
891 1 0.544139 0.063705 0.330803
892 1 0.779786 0.230237 0.1141
893 1 0.976943 0.909247 0.852752
894 1 0.628388 0.374819 0.863129
895 1 0.734421 0.70283 0.411537
896 1 0.923426 0.184634 0.546464
897 1 0.868093 0.98921 0.828909
898 1 0.87105 0.0135556 0.364618
899 1 0.609016 0.715297 0.901834
900 1 0.311182 0.653601 0.471473
901 1 0.448759 0.329993 0.0566061
902 1 0.463532 0.487228 0.632427
903 1 0.315819 0.104076 0.385219
904 1 0.520961 0.0850742 0.87564