ITEM: TIMESTEP
41700
ITEM: NUMBER OF ATOMS
4000
ITEM: BOX BOUNDS pp pp pp
0.0000000000000000e+00 1.6795961913825074e+01
0.0000000000000000e+00 1.6795961913825074e+01
0.0000000000000000e+00 1.6795961913825074e+01
ITEM: ATOMS id type xs ys zs
1 1 0.18211 0.103612 0.0572013
2 1 0.0296223 0.151369 0.868385
3 1 0.0291451 0.99923 0.914939
4 1 0.275219 0.151239 0.127746
5 1 0.132415 0.963318 0.0835728
6 1 0.223654 0.0504771 0.07616
7 1 0.281 0.979334 0.769563
8 1 0.983406 0.0395415 0.0515967
9 1 0.446171 0.943502 0.0329731
10 1 0.313446 0.0939729 0.965864
11 1 0.0145053 0.794951 0.979315
12 1 0.309451 0.193402 0.885345
13 1 0.287714 0.0633684 0.0855495
14 1 0.514494 0.934246 0.733624
15 1 0.436308 0.31683 0.0687568
16 1 0.0910637 0.931624 0.042991
17 1 0.338457 0.983345 0.865447
18 1 0.507524 0.982506 0.869231
19 1 0.583207 0.763239 0.225536
20 1 0.286384 0.182319 0.305878
21 1 0.38571 0.835082 0.152198
22 1 0.421261 0.182795 0.840768
23 1 0.616212 0.0881327 1.00054
24 1 0.724624 0.19487 0.83281
25 1 0.515606 0.748821 0.0167733
26 1 0.718332 0.954202 0.127615
27 1 0.588687 0.0691141 0.205869
28 1 0.629666 0.88321 0.943342
29 1 0.500262 0.0206793 0.133149
30 1 0.867988 0.900738 0.868624
31 1 0.847252 0.0834863 0.251839
32 1 0.766652 0.129925 0.213041
33 1 0.913186 0.826178 0.0869313
34 1 0.648932 0.178431 0.848897
35 1 0.611161 0.957017 0.302657
36 1 0.830809 0.164158 0.957097
37 1 0.636025 0.173985 0.0169172
38 1 0.628745 0.980689 0.888955
39 1 0.924321 0.0550402 0.7985
40 1 0.871661 0.876518 0.0190034
41 1 0.776395 0.160644 0.803755
42 1 0.0440528 0.936365 0.697857
43 1 0.143748 0.0416723 0.189058
44 1 0.122968 0.0528755 0.131384
45 1 0.976761 0.822819 0.103764
46 1 0.526221 0.14333 0.130719
47 1 0.308162 0.82924 0.052493
48 1 0.183394 0.374773 0.196128
49 1 0.14095 0.933515 0.983449
50 1 0.371465 0.14458 0.160727
51 1 0.45626 0.924972 0.164151
52 1 0.105396 0.328079 0.0756435
53 1 0.225762 0.0857073 0.861592
54 1 0.439849 0.896006 0.807696
55 1 0.598618 0.190326 0.343664
56 1 0.503522 0.239445 0.011027
57 1 0.55395 0.113587 0.186649
58 1 0.543015 0.157407 0.928712
59 1 0.229301 0.00577014 0.116335
60 1 0.430445 0.190899 0.0453681
61 1 0.556814 0.3246 0.998458
62 1 0.488738 0.333335 0.176568
63 1 0.656295 0.0250933 0.136486
64 1 0.536178 0.0516735 0.894605
65 1 0.470604 0.839217 0.846754
66 1 0.645361 0.983404 0.0491761
67 1 0.39954 0.75578 0.161576
68 1 0.0282759 0.145746 0.0967921
69 1 0.560585 0.971383 0.972059
70 1 0.736072 0.0985918 0.781002
71 1 0.688482 0.176223 0.0655843
72 1 0.560307 0.23396 0.857677
73 1 0.831118 0.00900761 0.936735
74 1 0.881586 0.944939 0.11409
75 1 0.748335 0.310574 0.902618
76 1 0.717349 0.0982161 0.301182
77 1 0.688089 0.933855 0.0436768
78 1 0.743661 0.0292116 0.208946
79 1 0.986335 0.0664109 0.725065
80 1 0.670414 0.456081 0.0251425
81 1 0.246168 0.17965 0.98655
82 1 0.814309 0.222468 0.948885
83 1 0.907905 0.0366765 0.092337
84 1 0.267249 0.404371 0.0911304
85 1 0.846922 0.259426 0.777107
86 1 0.60277 0.433648 0.806914
87 1 0.582971 0.499745 0.837024
88 1 0.411593 0.117865 0.945933
89 1 0.334895 0.240404 0.161503
90 1 0.147975 0.311588 0.980084
91 1 0.0870537 0.104342 0.96388
92 1 0.290013 0.262474 0.0624516
93 1 0.395081 0.217035 0.720166
94 1 0.313552 0.135451 0.816611
95 1 0.450859 0.123114 0.0727009
96 1 0.383117 0.0867424 0.0365333
97 1 0.355276 0.100649 0.923069
98 1 0.440369 0.0159776 0.159998
99 1 0.117747 0.190414 0.180896
100 1 0.696463 0.110347 0.0387403
101 1 0.564404 0.246117 0.778196
102 1 0.40767 0.196556 0.780557
103 1 0.792325 0.323586 0.952975
104 1 0.768585 0.297627 0.0852458
105 1 0.368902 0.057255 0.136771
106 1 0.72785 0.198675 0.690987
107 1 0.749692 0.958771 0.18064
108 1 0.576277 0.322629 0.085752
109 1 0.949239 0.84952 0.724774
110 1 0.829035 0.411399 0.955821
111 1 0.787686 0.410318 0.881209
112 1 0.916805 0.173072 0.0972488
113 1 0.913568 0.110568 0.0950821
114 1 0.66984 0.426231 0.0808572
115 1 0.822316 0.110324 0.146863
116 1 0.678306 0.334748 0.0857753
117 1 0.0739941 0.245635 0.0314288
118 1 0.845933 0.00274985 0.115361
119 1 0.887753 0.138344 0.242477
120 1 0.842678 0.16373 0.152286
121 1 0.105713 0.381234 0.0440938
122 1 0.239144 0.464768 0.0912321
123 1 0.920182 0.218351 0.0636767
124 1 0.296449 0.625566 0.92981
125 1 0.199924 0.139882 0.00654412
126 1 0.176484 0.454846 0.0524712
127 1 0.000819125 0.239721 0.732293
128 1 0.189217 0.418144 0.962839
129 1 0.368852 0.107131 0.850648
130 1 0.587811 0.204102 0.0430338
131 1 0.0197137 0.304395 0.793004
132 1 0.508851 0.473231 0.967989
133 1 0.134889 0.24378 0.207403
134 1 0.34734 0.339596 0.790734
135 1 0.359429 0.500416 0.0395328
136 1 0.457161 0.115031 0.145122
137 1 0.374953 0.194372 0.0106173
138 1 0.468675 0.160237 0.945119
139 1 0.682265 0.381084 0.127633
140 1 0.295704 0.33359 0.190038
141 1 0.559891 0.348736 0.841383
142 1 0.770622 0.435616 0.0157506
143 1 0.576562 0.111496 0.0969505
144 1 0.660268 0.951175 0.391619
145 1 0.886771 0.286525 0.905222
146 1 0.785428 0.567924 0.0237162
147 1 0.596104 0.300669 0.219023
148 1 0.526023 0.232003 0.075514
149 1 0.842894 0.279584 0.959783
150 1 0.771158 0.396597 0.159735
151 1 0.954135 0.138647 0.245684
152 1 0.943582 0.300787 0.926129
153 1 0.807768 0.351967 0.0638679
154 1 0.758681 0.312533 0.818204
155 1 0.913167 0.363401 0.919625
156 1 0.0700503 0.382883 0.994592
157 1 0.10167 0.441967 0.0522944
158 1 0.24354 0.366391 0.855553
159 1 0.29534 0.266872 0.968953
160 1 0.749431 0.456984 0.903009
161 1 0.980173 0.189265 0.0835333
162 1 0.134201 0.4789 0.0940074
163 1 0.023001 0.545483 0.220118
164 1 0.0969127 0.555686 0.176534
165 1 0.131273 0.408971 0.927146
166 1 0.0623211 0.550155 0.997273
167 1 0.0449008 0.426487 0.175735
168 1 0.0696818 0.505988 0.816697
169 1 0.356413 0.637596 0.0490978
170 1 0.216299 0.451036 0.266518
171 1 0.434564 0.335975 0.939564
172 1 0.163114 0.152216 0.269754
173 1 0.328596 0.27063 0.0177923
174 1 0.197577 0.457526 0.190797
175 1 0.239252 0.410862 0.141373
176 1 0.301828 0.138863 0.0742832
177 1 0.458279 0.52919 0.824628
178 1 0.591047 0.558393 0.259771
179 1 0.298422 0.301836 0.780508
180 1 0.111569 0.546651 0.110248
181 1 0.399024 0.482804 0.997601
182 1 0.771818 0.16177 0.944021
183 1 0.470344 0.302427 0.0113271
184 1 0.285491 0.473639 0.948499
185 1 0.57319 0.550496 0.679902
186 1 0.687107 0.571092 0.0907651
187 1 0.37561 0.448834 0.806998
188 1 0.420369 0.195929 0.940022
189 1 0.625292 0.293764 0.0605599
190 1 0.782754 0.235733 0.113737
191 1 0.834692 0.254794 0.143839
192 1 0.728075 0.529794 0.0669957
193 1 0.572113 0.248978 0.156473
194 1 0.984804 0.311264 0.00914508
195 1 0.826046 0.578901 0.343744
196 1 0.856628 0.351867 0.936398
197 1 0.819585 0.324126 0.237201
198 1 0.107711 0.441512 0.16079
199 1 0.0524663 0.324076 0.987505
200 1 0.946061 0.674087 0.684358
201 1 0.0761276 0.509304 0.0729727
202 1 0.161976 0.837425 0.023655
203 1 0.963133 0.780227 0.933762
204 1 0.0709031 0.628315 0.864377
205 1 0.285335 0.711856 0.779959
206 1 0.100441 0.0135081 0.891606
207 1 0.96481 0.702783 0.799319
208 1 0.0914319 0.53295 0.871465
209 1 0.215603 0.264628 0.285403
210 1 0.181252 0.765748 0.990086
211 1 0.395976 0.377652 0.0849919
212 1 0.219708 0.840178 0.142878
213 1 0.0128277 0.281065 0.115687
214 1 0.361855 0.577138 0.0641768
215 1 0.39139 0.378631 0.841697
216 1 0.236202 0.559006 0.8102
217 1 0.361369 0.441922 0.163311
218 1 0.621537 0.532614 0.199885
219 1 0.321904 0.557178 0.292033
220 1 0.163349 0.629553 0.293623
221 1 0.689222 0.464651 0.92216
222 1 0.701628 0.437 0.140705
223 1 0.797612 0.471543 0.13952
224 1 0.54153 0.515956 -0.00223243
225 1 0.547875 0.709502 0.981865
226 1 0.927716 0.325706 0.870521
227 1 0.46505 0.568711 0.0392087
228 1 0.496131 0.545173 0.94841
229 1 0.184447 0.59852 0.104164
230 1 0.969276 0.502697 0.0705984
231 1 0.817269 0.515519 0.181025
232 1 0.544868 0.536232 0.228684
233 1 0.78677 0.476874 0.0626248
234 1 0.832244 0.51807 0.115522
235 1 0.0347728 0.346679 0.045396
236 1 0.865906 0.624422 0.13624
237 1 0.00513807 0.208789 0.202817
238 1 0.968397 0.582056 0.0128897
239 1 0.913113 0.406716 0.126946
240 1 0.84672 0.309555 0.184721
241 1 0.713109 0.775524 0.140173
242 1 0.115921 0.866246 0.664068
243 1 0.122014 0.635854 0.339361
244 1 0.0443516 0.884113 0.936399
245 1 0.0698183 0.91737 0.989376
246 1 0.267283 0.734931 0.938184
247 1 0.974226 0.504744 0.914194
248 1 0.835104 0.460358 0.997873
249 1 0.254225 0.804014 0.207482
250 1 0.312152 0.709121 0.966075
251 1 0.159455 0.828115 0.918939
252 1 0.677679 0.870915 0.769957
253 1 0.322601 0.579726 0.184946
254 1 0.312616 0.519458 0.10412
255 1 0.59212 0.495473 0.139854
256 1 0.526341 0.603514 0.195456
257 1 0.302422 0.489252 0.289095
258 1 0.266928 0.802773 0.567272
259 1 0.362183 0.491882 0.111094
260 1 0.46414 0.558915 0.225095
261 1 0.555392 0.68994 0.787572
262 1 0.718237 0.563722 0.282786
263 1 0.569685 0.441045 0.10527
264 1 0.449457 0.636129 0.248704
265 1 0.480913 0.446642 0.129534
266 1 0.883014 0.702887 0.183466
267 1 0.662272 0.563436 0.0141008
268 1 0.853632 0.411386 0.159158
269 1 0.0486282 0.509526 0.272054
270 1 0.99639 0.426297 0.206592
271 1 0.803669 0.393857 0.275342
272 1 0.0167446 0.531419 0.8009
273 1 0.933971 0.485045 0.0196106
274 1 0.681456 0.927994 0.873962
275 1 0.866628 0.562509 0.013769
276 1 0.629223 0.55042 0.966779
277 1 0.801125 0.667197 0.068347
278 1 0.764315 0.701423 0.811851
279 1 0.528341 0.556518 0.052107
280 1 0.719298 0.688922 0.0446334
281 1 0.0265605 0.797512 0.0605684
282 1 0.128753 0.16035 0.995412
283 1 0.866833 0.782907 0.163649
284 1 0.00462279 0.955995 0.583483
285 1 0.820521 0.810671 0.204378
286 1 0.220939 0.649827 0.0191257
287 1 0.178145 0.885731 0.93037
288 1 0.194675 0.623637 0.884055
289 1 0.378454 0.911999 0.963546
290 1 0.405109 0.87028 0.76208
291 1 0.389943 0.960736 0.0325312
292 1 0.504749 0.919039 0.92767
293 1 0.379609 0.620231 0.165084
294 1 0.613517 0.644865 0.850453
295 1 0.360114 0.936451 0.254376
296 1 0.18644 0.830794 0.0846122
297 1 0.79547 0.697472 0.160121
298 1 0.459429 0.799067 0.0115579
299 1 0.431339 0.727757 0.848299
300 1 0.200679 0.0929028 0.926109
301 1 0.403625 0.759008 0.968055
302 1 0.640578 0.843411 0.0878651
303 1 0.785383 0.634654 0.116576
304 1 0.502881 0.987696 0.928845
305 1 0.43177 0.517965 0.0491352
306 1 0.412234 0.689964 0.687172
307 1 0.778305 0.9287 0.009819
308 1 0.438804 0.710544 0.949485
309 1 0.84414 0.540433 0.955509
310 1 0.808804 0.969244 0.0590433
311 1 0.123706 0.584318 0.373174
312 1 0.565105 0.566462 0.154488
313 1 0.690005 0.513837 0.000692611
314 1 0.913165 0.737854 0.97131
315 1 0.795863 0.860224 0.17571
316 1 0.644216 0.691477 0.0755613
317 1 0.890138 0.680245 0.953412
318 1 0.744906 0.822118 0.847856
319 1 0.0293053 0.47593 0.0662862
320 1 0.779353 0.808905 0.976432
321 1 0.0351495 0.917635 0.753326
322 1 0.687717 0.893936 0.942353
323 1 0.237232 0.705371 0.0362984
324 1 0.0170287 0.743978 0.0913144
325 1 0.0227992 0.642775 0.0682337
326 1 0.917187 0.740419 0.88732
327 1 0.0682294 0.617886 0.0237684
328 1 0.21302 0.892289 0.17372
329 1 0.983148 0.933455 0.0575916
330 1 0.36459 0.849158 0.0601397
331 1 0.457784 0.730194 0.00204994
332 1 0.18581 0.840201 0.291113
333 1 0.268608 0.863591 0.950963
334 1 0.30377 0.909786 0.941653
335 1 0.638041 0.805399 0.193303
336 1 0.102508 0.81584 0.240488
337 1 0.223052 0.848841 0.912364
338 1 0.304561 0.898787 0.0103774
339 1 0.458706 0.805981 0.427212
340 1 0.157753 0.916363 0.205407
341 1 0.598508 0.750702 0.910919
342 1 0.566801 0.954899 0.134884
343 1 0.567585 0.89192 0.166798
344 1 0.581452 0.918715 0.95408
345 1 0.678499 0.395533 0.972859
346 1 0.519854 0.0248207 0.974135
347 1 0.41285 0.214638 0.30548
348 1 0.656961 0.95134 0.256356
349 1 0.203971 0.768292 0.208901
350 1 0.532207 0.858246 0.759571
351 1 0.888075 0.576642 0.0791975
352 1 0.790698 0.981956 0.228754
353 1 0.612831 0.842286 0.766031
354 1 0.70771 0.768495 0.886939
355 1 0.570641 0.85235 0.119585
356 1 0.64791 0.867663 0.305253
357 1 0.616879 0.768478 0.968113
358 1 0.994788 0.7899 0.860059
359 1 0.899138 0.815223 0.0215766
360 1 0.983625 0.0462477 0.904681
361 1 0.227722 0.798807 0.0247744
362 1 0.243292 0.686997 0.608961
363 1 0.0128402 0.98136 0.19188
364 1 0.281918 0.975508 0.012445
365 1 0.91025 0.0998247 0.941749
366 1 0.338278 0.0780931 0.727188
367 1 0.0485907 0.0902717 0.213053
368 1 0.232562 0.0398296 0.441637
369 1 0.451272 0.130477 0.893252
370 1 0.279076 0.504248 0.00300113
371 1 0.319303 0.188555 0.111581
372 1 0.954207 0.767363 0.0929812
373 1 0.244684 0.341141 0.786237
374 1 0.0986239 0.843273 0.753025
375 1 0.619804 0.470749 0.0830946
376 1 0.205005 0.897406 0.0920293
377 1 0.300954 0.804418 0.995776
378 1 0.372891 0.928547 0.0996852
379 1 0.408168 0.117646 0.231002
380 1 0.353111 0.761984 0.104002
381 1 0.519665 0.820702 0.100653
382 1 0.614922 0.130314 0.284744
383 1 0.760743 0.0850023 0.247
384 1 0.597339 0.977849 0.365981
385 1 0.62756 0.89318 0.12685
386 1 0.634868 0.0362511 0.081113
387 1 0.587894 0.953779 0.824967
388 1 0.476062 0.0239108 0.885822
389 1 0.624341 0.319298 0.864733
390 1 0.00876802 0.990468 0.829415
391 1 0.618099 0.978763 0.116637
392 1 0.661083 0.930533 0.333662
393 1 0.867001 0.0351906 0.717932
394 1 0.988953 0.0154561 0.777032
395 1 0.520257 0.547477 0.113095
396 1 0.858908 0.0501984 0.999466
397 1 0.276365 0.308072 0.010959
398 1 0.172537 0.78308 0.0511094
399 1 0.325044 0.199522 0.0459281
400 1 0.820607 0.0475527 0.0551272
401 1 0.987842 0.228005 0.90186
402 1 0.302167 0.214263 0.99239
403 1 0.161631 0.91578 0.037436
404 1 0.780998 0.00178375 0.165669
405 1 0.225669 0.203167 0.284608
406 1 0.374372 0.239886 0.0496183
407 1 0.117489 0.982986 0.186327
408 1 0.660408 0.171161 0.388779
409 1 0.0797038 0.221136 0.976365
410 1 0.184854 0.0883802 0.180279
411 1 0.0800375 0.0288698 0.218994
412 1 0.257483 0.927768 0.244719
413 1 0.0926697 0.04422 0.0733041
414 1 0.27982 0.777363 0.0858391
415 1 0.436859 0.839405 0.0654526
416 1 0.405818 0.0829133 0.184572
417 1 0.515338 0.730764 0.111902
418 1 0.51494 0.0202009 0.210301
419 1 0.297924 0.136456 0.401263
420 1 0.308675 0.0415781 0.143296
421 1 0.351689 0.96052 0.178932
422 1 0.69029 0.926141 0.433576
423 1 0.771707 0.612403 0.0602615
424 1 0.538076 0.0137761 0.460015
425 1 0.532648 0.0606553 0.335005
426 1 0.493913 0.804423 0.24239
427 1 0.588794 0.678334 0.0967855
428 1 0.455077 0.968731 0.89781
429 1 0.709765 0.16899 0.140322
430 1 0.939207 0.0296839 0.00918568
431 1 0.757309 0.862721 0.045535
432 1 0.415532 0.183396 0.180233
433 1 0.764645 0.800687 0.0545703
434 1 0.86526 0.998681 0.248743
435 1 0.695482 0.157571 0.201853
436 1 0.83409 0.140067 0.402572
437 1 0.924455 0.092457 0.881009
438 1 0.513675 0.260735 0.89371
439 1 0.877864 0.992866 0.975541
440 1 0.684271 0.894334 0.243732
441 1 0.985396 0.14586 0.980775
442 1 0.129471 0.188727 0.93191
443 1 0.0724395 0.192999 0.137081
444 1 0.0506304 0.0226199 0.154521
445 1 0.14359 0.176256 0.806942
446 1 0.140925 0.209591 0.0464648
447 1 0.861831 0.119071 0.296404
448 1 0.413235 0.967607 0.122804
449 1 0.967869 0.384933 0.317652
450 1 0.0398908 0.192808 0.257572
451 1 0.511557 0.895132 0.108095
452 1 0.291764 0.0418421 0.352324
453 1 0.366204 0.224299 0.880151
454 1 0.392213 0.516825 0.949031
455 1 0.461399 0.875356 0.259491
456 1 0.219088 0.496069 0.953742
457 1 0.178056 0.0789379 0.116715
458 1 0.457296 0.0617085 0.251178
459 1 0.800652 0.066241 0.204883
460 1 0.288228 0.379858 0.964338
461 1 0.537159 0.761515 0.283858
462 1 0.141159 0.130919 0.162775
463 1 0.380967 0.807508 0.426206
464 1 0.774182 0.188551 0.408249
465 1 0.456068 0.00981372 0.0988922
466 1 0.722611 0.0391558 -3.79476e-05
467 1 0.62101 0.9632 0.955166
468 1 0.645813 0.33578 0.434694
469 1 0.890509 0.275841 0.0352989
470 1 0.564454 0.0085732 0.172282
471 1 0.84001 0.0516837 0.155308
472 1 0.715331 0.119581 0.933232
473 1 0.921955 0.145472 0.462899
474 1 0.00747905 0.314732 0.63111
475 1 0.931266 0.269582 0.847652
476 1 0.798715 0.143103 0.0925665
477 1 0.712804 0.845913 0.0799779
478 1 0.0502416 0.287019 0.0626232
479 1 0.9411 0.0616998 0.326922
480 1 0.658525 0.0623667 0.190309
481 1 0.193113 0.274992 0.870857
482 1 0.219924 0.250296 0.157772
483 1 0.156953 0.23479 0.15186
484 1 0.0899439 0.068245 0.17298
485 1 0.177194 0.158102 0.0729073
486 1 0.0766981 0.461166 0.113924
487 1 0.41396 0.540083 0.111472
488 1 0.0691823 0.184714 0.0201214
489 1 0.97074 0.252325 0.971777
490 1 0.275084 0.28947 0.248404
491 1 0.522769 0.119088 0.0451208
492 1 0.231011 0.417525 0.0419977
493 1 0.249054 0.158284 0.835696
494 1 0.331144 0.958273 0.0627719
495 1 0.538005 0.192681 0.496309
496 1 0.507783 0.356804 0.052099
497 1 0.233214 0.944373 0.790685
498 1 0.335686 0.958082 0.296494
499 1 0.228724 0.139949 0.281551
500 1 0.472337 0.0125065 0.822574
501 1 0.584221 0.151667 0.48814
502 1 0.462496 0.238242 0.0833642
503 1 0.80888 0.244224 0.425247
504 1 0.565666 0.418078 0.219879
505 1 0.536849 0.110528 0.852991
506 1 0.764598 0.354118 0.117568
507 1 0.538007 0.96382 0.224423
508 1 0.600363 0.119952 0.896701
509 1 0.690732 0.0545522 0.0630121
510 1 0.868843 0.882393 0.0955894
511 1 0.648503 0.183006 0.249753
512 1 0.789925 0.462536 0.629559
513 1 0.631472 0.204406 0.486386
514 1 0.935967 0.457905 0.163243
515 1 0.88917 0.350034 0.113317
516 1 0.869686 0.222515 0.00641013
517 1 0.0936834 0.120835 0.0262854
518 1 0.898692 0.909312 0.237291
519 1 0.807459 0.21449 0.182047
520 1 0.0274519 0.26782 0.172223
521 1 0.269686 0.431452 0.996348
522 1 0.193468 0.285354 0.0763248
523 1 0.865207 0.103117 0.19909
524 1 0.0496757 0.337043 0.16012
525 1 0.00666892 0.301122 0.947747
526 1 0.402459 0.406971 0.0117696
527 1 0.0194128 0.159972 0.172161
528 1 0.296512 0.366229 0.900298
529 1 0.519138 0.204884 0.12875
530 1 0.276341 0.275591 0.189679
531 1 0.235692 0.401129 0.341867
532 1 0.142513 0.376501 0.841896
533 1 0.340702 0.306326 0.898732
534 1 0.125628 0.842066 0.867611
535 1 0.569715 0.492582 0.0576651
536 1 0.320573 0.335148 0.37252
537 1 0.46355 0.286671 0.937628
538 1 0.710196 0.408874 0.0216224
539 1 0.502722 0.0941643 0.0959622
540 1 0.358798 0.328231 0.186364
541 1 0.56334 0.244949 0.919819
542 1 0.713013 0.145601 0.340916
543 1 0.489895 0.0899712 0.300237
544 1 0.473249 0.316316 0.726835
545 1 0.406371 0.249115 0.971256
546 1 0.623786 0.335383 0.976254
547 1 0.515555 0.337552 0.117074
548 1 0.897677 0.545917 0.930655
549 1 0.838127 0.99754 0.192143
550 1 0.0685957 0.219034 0.203686
551 1 0.694702 0.398927 0.901257
552 1 0.761471 0.190393 0.0804919
553 1 0.850723 0.238272 0.0612317
554 1 0.985378 0.490246 0.181629
555 1 0.891918 0.481196 0.306125
556 1 0.919066 0.208531 0.458401
557 1 0.100728 0.327898 0.0164336
558 1 0.777105 0.268214 0.937786
559 1 0.838612 0.0654822 0.314572
560 1 0.697995 0.228034 0.261615
561 1 0.862424 0.184184 0.285601
562 1 0.913097 0.414545 0.20591
563 1 0.994827 0.383527 0.0216858
564 1 0.909062 0.303635 0.170972
565 1 0.327526 0.587217 0.125225
566 1 0.909387 0.683559 0.244998
567 1 0.33467 0.427188 0.0331421
568 1 0.0441266 0.579597 0.270696
569 1 0.0664992 0.287643 0.208694
570 1 0.948459 0.288036 0.110206
571 1 0.283264 0.376386 0.0309822
572 1 0.182323 0.520968 0.989848
573 1 0.284006 0.422368 0.859217
574 1 0.888286 0.432396 0.0154479
575 1 0.49601 0.334555 0.897327
576 1 0.252361 0.500933 0.136587
577 1 0.327279 0.518925 0.938069
578 1 0.460909 0.0678959 0.697767
579 1 0.450418 0.563598 0.762206
580 1 0.270908 0.577279 0.0809338
581 1 0.539014 0.370276 0.900403
582 1 0.501924 0.448753 0.203635
583 1 0.671926 0.620666 0.850136
584 1 0.35709 0.277301 0.965156
585 1 0.605952 0.429756 0.04834
586 1 0.871101 0.398834 0.0837645
587 1 0.342167 0.34783 0.133086
588 1 0.439881 0.438448 0.189277
589 1 0.643765 0.236624 0.0647537
590 1 0.758071 0.312318 0.0106637
591 1 0.822587 0.372778 0.121845
592 1 0.65308 0.56048 0.868689
593 1 0.734487 0.215039 0.169008
594 1 0.729111 0.415402 0.21058
595 1 0.586567 0.149078 0.0311891
596 1 0.853611 0.183165 0.212125
597 1 0.0120283 0.359404 0.957192
598 1 0.88628 0.511139 0.166593
599 1 0.818199 0.202911 0.367364
600 1 0.874333 0.633719 0.201986
601 1 0.122995 0.291596 0.244911
602 1 0.0997758 0.474261 0.236646
603 1 0.187025 0.277589 0.228672
604 1 0.0877985 0.791666 0.181505
605 1 0.0476955 0.152093 0.977982
606 1 0.193388 0.652256 0.942746
607 1 0.128264 0.404842 0.985947
608 1 0.278047 0.718612 0.0972989
609 1 0.347998 0.428706 0.0967219
610 1 0.155515 0.567647 0.162959
611 1 0.252447 0.645462 0.185623
612 1 0.194767 0.674031 0.84463
613 1 0.201975 0.543586 0.128244
614 1 0.259213 0.497648 0.354663
615 1 0.140296 0.247987 0.00134874
616 1 0.431879 0.501644 0.205514
617 1 0.584719 0.407438 0.923858
618 1 0.431702 0.234004 0.898416
619 1 0.423027 0.582378 0.271347
620 1 0.148438 0.519848 0.928088
621 1 0.618298 0.558 0.121001
622 1 0.676362 0.621688 0.305466
623 1 0.744391 0.502509 0.954264
624 1 0.408031 0.277962 0.199473
625 1 0.47282 0.511126 0.00504652
626 1 0.796852 0.419356 0.205033
627 1 0.772943 0.376095 0.0211506
628 1 0.576063 0.359383 0.232812
629 1 0.591728 0.613641 0.126801
630 1 0.715818 0.649456 0.132481
631 1 0.975232 0.643476 0.035793
632 1 0.697106 0.43833 0.319717
633 1 0.00480276 0.466823 0.408704
634 1 0.0386852 0.574652 0.162651
635 1 0.833762 0.400054 0.0302573
636 1 0.764467 0.516069 0.113664
637 1 0.811756 0.361189 0.185529
638 1 0.743302 0.622808 0.982134
639 1 0.0175039 0.366157 0.208395
640 1 0.0123366 0.531809 0.100148
641 1 0.0379689 0.691244 0.116052
642 1 0.994187 0.78452 0.260982
643 1 0.265921 0.75228 0.0148814
644 1 0.294701 0.696887 0.196565
645 1 0.130905 0.616958 0.940881
646 1 0.302043 0.633068 0.0781514
647 1 0.24175 0.846445 0.387782
648 1 0.967346 0.654247 0.347629
649 1 0.0792471 0.586774 0.0739998
650 1 0.0618543 0.798874 0.12421
651 1 0.012672 0.547391 0.960897
652 1 0.265555 0.67206 0.125337
653 1 0.137699 0.563731 0.0519497
654 1 0.260792 0.333048 0.294227
655 1 0.190575 0.672706 0.381076
656 1 0.4131 0.560714 0.0112358
657 1 0.33427 0.858061 0.933893
658 1 0.61074 0.667043 0.309134
659 1 0.427006 0.512377 0.271578
660 1 0.322641 0.744256 0.0489119
661 1 0.452857 0.453759 0.0787332
662 1 0.658661 0.524511 0.146331
663 1 0.586265 0.866783 0.289946
664 1 0.686579 0.487775 0.0895624
665 1 0.50623 0.672502 0.211211
666 1 0.799582 0.814183 0.399966
667 1 0.461737 0.565027 0.381096
668 1 0.849262 0.49951 0.248992
669 1 0.75667 0.618532 0.206184
670 1 0.768461 0.66577 0.932741
671 1 0.6859 0.244604 0.188729
672 1 0.761404 0.264425 0.195007
673 1 0.94626 0.56572 0.103142
674 1 0.877563 0.566541 0.215097
675 1 0.147492 0.670734 0.903535
676 1 0.0217361 0.45736 0.121983
677 1 0.71357 0.498998 0.142901
678 1 0.00920027 0.596802 0.112998
679 1 0.971326 0.688183 0.136742
680 1 0.963817 0.39804 0.252161
681 1 0.320554 0.908259 0.214584
682 1 0.891675 0.783105 0.924629
683 1 0.11602 0.75904 0.0445803
684 1 0.825743 0.866317 0.339181
685 1 0.0481327 0.701057 0.0491397
686 1 0.206814 0.727591 0.742459
687 1 0.157466 0.989026 0.252626
688 1 0.217163 0.781315 0.138988
689 1 0.299547 0.692627 0.0327374
690 1 0.337334 0.993543 0.114126
691 1 0.428654 0.910885 0.22284
692 1 0.104062 0.974831 0.243817
693 1 0.380624 0.687609 0.142675
694 1 0.480176 0.74899 0.0640467
695 1 0.423739 0.575258 0.167529
696 1 0.483482 0.74864 0.155011
697 1 0.638065 0.621471 0.0798982
698 1 0.444111 0.628364 0.858296
699 1 0.365841 0.512169 0.276003
700 1 0.475095 0.696335 0.330159
701 1 0.533941 0.938023 0.0438731
702 1 0.665653 0.695203 0.0172249
703 1 0.578304 0.643594 0.929767
704 1 0.0431895 0.963357 0.240181
705 1 0.339721 0.481692 0.984941
706 1 0.556745 0.702074 0.155162
707 1 0.801638 0.536656 0.407515
708 1 0.806288 0.621852 0.297689
709 1 0.638435 0.61091 0.162714
710 1 0.823291 0.785938 0.0467056
711 1 0.483949 0.506456 0.0791992
712 1 0.905652 0.832377 0.960076
713 1 0.716157 0.722239 0.959074
714 1 0.0539422 0.743632 0.16049
715 1 0.941682 0.461232 0.228182
716 1 0.810865 0.573348 0.144948
717 1 0.710056 0.593538 0.224272
718 1 1.0007 0.629191 0.162188
719 1 0.235856 0.883936 0.304937
720 1 0.761967 0.858981 0.30555
721 1 0.0504597 0.927456 0.0955417
722 1 0.27316 0.739466 0.156622
723 1 0.262467 0.803371 0.26712
724 1 0.904924 0.674888 0.0222634
725 1 0.105777 0.122085 0.837261
726 1 0.327555 0.33558 0.00366298
727 1 0.0840491 0.764939 0.268521
728 1 0.894819 0.162666 0.993164
729 1 0.129206 0.792835 0.29516
730 1 0.263363 0.955139 0.100257
731 1 0.398609 0.745359 0.0293942
732 1 0.43092 0.979245 0.325701
733 1 0.370622 0.75689 0.221941
734 1 0.409362 0.828489 0.997415
735 1 0.297581 0.759667 0.217404
736 1 0.338936 0.952924 -0.00163286
737 1 0.551472 0.649107 0.258547
738 1 0.480059 0.0072602 0.0286901
739 1 0.590351 0.833594 0.0649795
740 1 0.254485 0.902206 0.905325
741 1 0.743749 0.762911 0.426046
742 1 0.795808 0.770466 0.251604
743 1 0.749019 0.939299 0.0650775
744 1 0.624033 0.884674 0.244481
745 1 0.581547 0.080985 0.296988
746 1 0.766318 0.803408 0.909888
747 1 0.551805 0.831013 0.0039079
748 1 0.428635 0.666291 0.294429
749 1 0.781687 0.170149 0.141932
750 1 0.698496 0.941467 0.211824
751 1 0.725888 0.473299 0.0361369
752 1 0.677335 0.829429 0.13639
753 1 0.62929 0.820213 0.843048
754 1 0.935534 0.155627 0.0374824
755 1 0.638199 0.783424 0.119873
756 1 0.947115 0.658839 0.184718
757 1 0.0831787 0.976334 0.138087
758 1 0.885953 0.842831 0.150119
759 1 0.948492 0.792648 0.996643
760 1 0.911065 0.890696 0.82437
761 1 0.0595535 0.633524 0.137352
762 1 0.171869 0.0113778 0.306336
763 1 0.0688939 0.0530996 0.935418
764 1 0.944101 0.978845 0.079861
765 1 0.122711 0.99498 0.780573
766 1 0.15401 0.437311 0.862495
767 1 0.284213 0.983869 0.27971
768 1 0.0105303 0.981851 0.0896385
769 1 0.448002 0.862795 0.194601
770 1 0.916772 0.963317 0.0108969
771 1 0.285426 0.956426 0.890903
772 1 0.0166 0.938662 0.922678
773 1 0.413297 0.0536135 0.291702
774 1 0.215969 0.0548175 0.326351
775 1 0.320633 0.797553 0.456865
776 1 0.174612 0.0302337 0.384337
777 1 0.657763 0.0905858 0.105335
778 1 0.549175 0.789047 0.341192
779 1 0.490206 0.96607 0.984997
780 1 0.535567 0.866247 0.82454
781 1 0.360831 0.0655132 0.242687
782 1 0.4804 0.765062 0.315203
783 1 0.369588 0.0221926 0.191585
784 1 0.669136 0.960922 0.926321
785 1 0.553661 0.659703 0.350241
786 1 0.784419 0.968347 0.120244
787 1 0.722863 0.75943 0.230812
788 1 0.445025 0.0507102 0.051606
789 1 0.671792 0.814989 0.392287
790 1 0.492998 0.927922 0.212303
791 1 0.817506 0.898595 0.0506954
792 1 0.785805 0.105833 0.357659
793 1 0.731603 0.869266 0.160203
794 1 0.691793 0.701532 0.154635
795 1 0.229985 0.858952 0.0173007
796 1 0.622884 0.927936 0.0683388
797 1 0.805095 0.911867 0.890999
798 1 0.8617 0.14158 0.0966475
799 1 0.200433 0.187439 0.339308
800 1 0.862713 0.93573 0.038024
801 1 0.980984 0.0525116 0.840322
802 1 0.200074 0.0293306 0.237838
803 1 0.274912 0.99005 0.163294
804 1 0.896104 0.020179 0.162767
805 1 0.827684 0.8541 0.129024
806 1 0.185531 0.200285 1.00078
807 1 0.869321 0.181259 0.493392
808 1 0.411918 0.965718 0.19363
809 1 0.0856112 0.892301 0.136121
810 1 0.275737 0.0335918 0.588976
811 1 0.0653595 0.0123927 0.347192
812 1 0.97947 0.0797104 0.265826
813 1 0.309742 0.0660324 0.501488
814 1 0.157899 0.982795 0.0291698
815 1 0.301028 0.201592 0.405778
816 1 0.3579 0.0340679 0.373242
817 1 0.314231 0.923847 0.413557
818 1 0.508031 0.864941 0.432388
819 1 0.449006 0.970772 0.398372
820 1 0.230825 0.131021 0.350823
821 1 0.683856 0.996049 0.187174
822 1 0.564773 0.0446309 0.402391
823 1 0.529355 0.895837 0.278893
824 1 0.511783 0.203315 0.267524
825 1 0.51079 0.971351 0.16227
826 1 0.614318 0.768111 0.0565459
827 1 0.921239 0.971423 0.265472
828 1 0.805317 0.918233 0.177051
829 1 0.755814 0.157487 0.278245
830 1 0.261798 0.967269 0.407887
831 1 0.599478 0.911402 0.892534
832 1 0.52708 0.160062 0.228437
833 1 0.609402 0.502058 0.272024
834 1 0.886776 0.102343 0.143782
835 1 0.976107 0.980186 0.0161838
836 1 0.893411 0.751075 0.0922718
837 1 0.987344 0.754764 0.0320753
838 1 0.871085 0.210298 0.133857
839 1 0.855235 0.0750761 0.101843
840 1 0.847087 0.0281881 0.367417
841 1 0.0967467 0.250188 0.0850395
842 1 0.0359676 0.0654427 0.836683
843 1 0.0833955 0.0145696 0.285903
844 1 0.132583 0.0711133 0.473833
845 1 0.899153 0.0744429 0.277325
846 1 0.238954 0.236456 0.229169
847 1 0.0407921 0.140317 0.384942
848 1 0.0352793 0.784604 0.388092
849 1 0.958231 0.265214 0.045579
850 1 0.396631 0.00603872 0.0872478
851 1 0.309878 0.970605 0.576553
852 1 0.35115 0.131689 0.231186
853 1 0.201083 0.965508 0.99133
854 1 0.492682 0.109178 0.238804
855 1 0.342417 0.0498866 0.0752748
856 1 0.451341 0.297205 0.288009
857 1 0.261508 0.206739 0.537869
858 1 0.470778 0.224045 0.164098
859 1 0.622718 0.888841 0.46679
860 1 0.327128 0.148139 0.337065
861 1 0.630073 0.118122 0.95177
862 1 0.684767 0.162462 0.494315
863 1 0.475072 0.938045 0.445826
864 1 0.520203 0.145721 0.293333
865 1 0.403323 0.125182 0.107527
866 1 0.751736 0.124779 0.986653
867 1 0.688829 0.844846 0.203289
868 1 0.706595 0.354897 0.238175
869 1 0.635981 0.227762 0.293283
870 1 0.617907 0.00460973 0.214124
871 1 0.611309 0.231073 0.218271
872 1 0.946505 0.00543652 0.204006
873 1 0.0338865 0.0410158 0.091267
874 1 0.887125 0.0119959 0.0422123
875 1 0.673837 0.813039 0.290725
876 1 0.93674 0.922135 0.107614
877 1 0.668991 0.194773 0.329273
878 1 0.945692 0.0736777 0.149976
879 1 0.23246 0.111818 0.0841978
880 1 0.808538 0.07066 0.409294
881 1 0.934953 0.861457 0.365307
882 1 0.707599 0.271678 0.311382
883 1 0.969714 0.112732 0.374642
884 1 0.173478 0.395651 0.0203225
885 1 0.11155 0.336912 0.139234
886 1 0.820391 0.145076 0.251363
887 1 0.202923 0.0910287 0.250479
888 1 0.959484 0.259915 0.173796
889 1 0.233925 0.272632 0.0346706
890 1 0.89447 0.26799 0.0995691
891 1 0.37798 0.289289 0.145729
892 1 0.432052 0.252019 0.0261983
893 1 0.224397 0.194236 0.128609
894 1 0.36842 0.425716 0.361707
895 1 0.587885 0.0129014 0.317416
896 1 0.253599 0.28908 0.104742
897 1 0.447404 0.114408 0.346943
898 1 0.525417 0.281282 0.184519
899 1 0.256996 0.924367 0.185957
900 1 0.493374 0.349518 0.358652