ITEM: TIMESTEP
25700
ITEM: NUMBER OF ATOMS
4000
ITEM: BOX BOUNDS pp pp pp
0.0000000000000000e+00 1.6795961913825074e+01
0.0000000000000000e+00 1.6795961913825074e+01
0.0000000000000000e+00 1.6795961913825074e+01
ITEM: ATOMS id type xs ys zs
1 1 0.995344 0.972831 0.988376
2 1 0.0137393 0.0325724 0.00868741
3 1 0.0291124 0.984666 0.048569
4 1 0.00571913 0.0487534 0.0666874
5 1 0.0929114 0.0120743 0.00633301
6 1 0.148945 0.0337253 0.976603
7 1 0.146349 0.0262683 0.050935
8 1 0.0762955 0.0303892 0.073432
9 1 0.260099 0.00780172 0.954137
10 1 0.268947 0.0708695 0.991215
11 1 0.253938 0.97793 0.0833904
12 1 0.223526 0.0125759 0.0111264
13 1 0.294283 0.987083 0.00876274
14 1 0.330263 0.037477 0.0216537
15 1 0.358539 0.0328707 0.0904958
16 1 0.269934 0.0274586 0.0517649
17 1 0.376199 0.978307 0.0149922
18 1 0.4608 0.0793242 0.0156149
19 1 0.407859 0.0202131 0.0548518
20 1 0.374141 0.0810951 0.0440852
21 1 0.484333 0.988813 0.0782319
22 1 0.473709 0.0170332 0.0229893
23 1 0.535502 0.921612 0.0670782
24 1 0.554757 0.0335135 0.0201154
25 1 0.503457 0.965511 0.00155042
26 1 0.66037 0.0612156 0.0139426
27 1 0.649623 0.96142 0.020502
28 1 0.619569 0.0192425 0.989768
29 1 0.739424 0.999298 0.0235224
30 1 0.723739 0.0559972 0.0308633
31 1 0.727449 0.0304972 0.0984731
32 1 0.71629 0.0874761 0.0855045
33 1 0.82366 0.964516 0.961225
34 1 0.859975 0.0910595 0.0401691
35 1 0.794825 0.0126801 0.0605668
36 1 0.796807 0.0682671 0.0201288
37 1 0.872011 0.981997 0.999783
38 1 0.95679 0.0286813 0.0244697
39 1 0.925832 0.946785 0.0266451
40 1 0.895194 0.040479 0.0363221
41 1 0.00288475 0.100341 0.0163929
42 1 0.0520005 0.146584 0.0238364
43 1 0.0432486 0.100272 0.0704047
44 1 0.998858 0.158094 0.0528269
45 1 0.102439 0.0771065 0.0264275
46 1 0.163057 0.173324 0.962396
47 1 0.179408 0.0894202 0.0305294
48 1 0.113088 0.134812 0.0468935
49 1 0.154917 0.102651 0.960922
50 1 0.235568 0.171656 0.995554
51 1 0.232521 0.115407 0.0492449
52 1 0.178974 0.159701 0.0211102
53 1 0.296496 0.134712 0.992255
54 1 0.376321 0.140262 0.0102913
55 1 0.323976 0.129914 0.0644108
56 1 0.276138 0.222603 0.00579387
57 1 0.408723 0.102501 0.971076
58 1 0.470448 0.20288 0.00803173
59 1 0.437426 0.0833497 0.0737218
60 1 0.384703 0.152726 0.0722519
61 1 0.441042 0.148102 0.033387
62 1 0.50757 0.143083 0.0159469
63 1 0.570487 0.991381 0.964274
64 1 0.528171 0.142347 0.111147
65 1 0.569556 0.0658851 0.970914
66 1 0.645963 0.13338 0.00676306
67 1 0.535367 0.0775506 0.114723
68 1 0.582933 0.124211 0.128206
69 1 0.641599 0.0939974 0.0710777
70 1 0.722705 0.195847 0.00726378
71 1 0.715358 0.13218 0.0378142
72 1 0.594246 0.185838 0.994414
73 1 0.75226 0.0838845 0.974509
74 1 0.844302 0.147567 0.00387164
75 1 0.802778 0.119879 0.0541508
76 1 0.763752 0.180878 0.0517504
77 1 0.904865 0.101337 0.992952
78 1 0.946177 0.143629 0.012849
79 1 0.939732 0.095279 0.0559899
80 1 0.887899 0.145784 0.0537755
81 1 0.0188229 0.200908 0.979414
82 1 0.0453756 0.263781 0.0128698
83 1 0.0391627 0.213331 0.0512423
84 1 0.997661 0.257922 0.057681
85 1 0.080377 0.204639 0.00776383
86 1 0.140782 0.269424 0.995704
87 1 0.141145 0.215043 0.0268861
88 1 0.0976301 0.2597 0.0514573
89 1 0.192373 0.222518 0.992403
90 1 0.229416 0.268468 0.00506271
91 1 0.221999 0.206574 0.0430552
92 1 0.18248 0.265692 0.0502717
93 1 0.310129 0.212774 0.949368
94 1 0.338874 0.25775 0.999155
95 1 0.327762 0.203482 0.051088
96 1 0.290266 0.25673 0.0568124
97 1 0.371741 0.201718 0.00242883
98 1 0.413307 0.252644 0.00777855
99 1 0.422647 0.207857 0.0536728
100 1 0.371564 0.251438 0.057902
101 1 0.497496 0.189851 0.064707
102 1 0.554442 0.229888 0.956157
103 1 0.546096 0.215727 0.0152209
104 1 0.496988 0.245612 0.0403908
105 1 0.541132 0.0968548 0.0395292
106 1 0.634635 0.234385 0.00427588
107 1 0.683537 0.260389 0.0471973
108 1 0.58032 0.228511 0.0669149
109 1 0.661892 0.177673 0.97079
110 1 0.748548 0.257315 0.989853
111 1 0.716554 0.221766 0.0734726
112 1 0.760587 0.255618 0.105082
113 1 0.795071 0.213293 0.00633052
114 1 0.858702 0.254985 0.0151315
115 1 0.865735 0.202984 0.0577361
116 1 0.803428 0.260813 0.0563423
117 1 0.91783 0.205321 0.00731576
118 1 0.963648 0.252856 0.0054464
119 1 0.952699 0.200442 0.0602304
120 1 0.904031 0.26248 0.0682974
121 1 0.000721325 0.309593 0.00861547
122 1 0.044505 0.360174 0.998375
123 1 0.0467894 0.305911 0.0621951
124 1 0.00361395 0.356826 0.0522533
125 1 0.0916001 0.302988 0.0107967
126 1 0.145451 0.356284 0.993925
127 1 0.142075 0.312511 0.0484922
128 1 0.0976523 0.356239 0.0655311
129 1 0.19091 0.317179 0.00226802
130 1 0.235984 0.368463 0.998382
131 1 0.24257 0.298776 0.0609106
132 1 0.203224 0.357007 0.0506466
133 1 0.281642 0.300182 0.00626245
134 1 0.338386 0.367051 0.999563
135 1 0.327626 0.310724 0.0484071
136 1 0.287464 0.35583 0.0455077
137 1 0.378666 0.3131 0.00790055
138 1 0.432134 0.350422 0.995949
139 1 0.413179 0.321416 0.0644168
140 1 0.3726 0.364202 0.049656
141 1 0.456817 0.296785 0.0166771
142 1 0.543116 0.330118 0.992968
143 1 0.560647 0.287826 0.0404855
144 1 0.492064 0.356689 0.0621698
145 1 0.593452 0.285904 0.982013
146 1 0.638811 0.34605 0.00120754
147 1 0.628943 0.290304 0.0354235
148 1 0.596735 0.34066 0.05428
149 1 0.699983 0.302336 0.990165
150 1 0.748451 0.339506 0.0104752
151 1 0.74083 0.285686 0.052656
152 1 0.685977 0.330049 0.0598619
153 1 0.809117 0.319701 0.00979978
154 1 0.853813 0.363127 0.00483731
155 1 0.847032 0.313478 0.0627196
156 1 0.80346 0.357276 0.0596326
157 1 0.902372 0.308834 0.012474
158 1 0.955852 0.362266 0.996268
159 1 0.950211 0.308071 0.0555473
160 1 0.90577 0.347213 0.0614944
161 1 0.998124 0.412758 0.00645473
162 1 0.0495537 0.449914 0.000288082
163 1 0.0510773 0.401244 0.0574343
164 1 0.00275985 0.448921 0.0528877
165 1 0.103022 0.401721 0.00770075
166 1 0.144309 0.45031 0.99946
167 1 0.146722 0.40017 0.0625253
168 1 0.103927 0.445124 0.0492966
169 1 0.185244 0.402454 0.0115407
170 1 0.236584 0.452617 0.00931642
171 1 0.239634 0.405756 0.0540693
172 1 0.195216 0.451199 0.0550638
173 1 0.287804 0.41708 0.0173524
174 1 0.344545 0.435245 0.00394888
175 1 0.334108 0.411181 0.0686069
176 1 0.286513 0.462977 0.0520483
177 1 0.390801 0.398634 0.979661
178 1 0.446091 0.419129 0.990564
179 1 0.428992 0.388965 0.0430826
180 1 0.390885 0.446914 0.0441932
181 1 0.494043 0.382569 0.00379427
182 1 0.544072 0.43516 0.980997
183 1 0.541722 0.397414 0.0448282
184 1 0.494292 0.435687 0.0449091
185 1 0.591973 0.383777 0.989033
186 1 0.639308 0.429016 0.995808
187 1 0.639682 0.387357 0.049027
188 1 0.604086 0.44844 0.0455555
189 1 0.692992 0.37808 0.018148
190 1 0.73853 0.434636 0.0102722
191 1 0.7501 0.386116 0.0533088
192 1 0.680329 0.441777 0.0432021
193 1 0.79508 0.396321 0.00667644
194 1 0.847588 0.435827 0.0129039
195 1 0.856977 0.390523 0.0590742
196 1 0.797568 0.437421 0.0639736
197 1 0.904609 0.409221 0.00264521
198 1 0.938478 0.471358 0.998532
199 1 0.951794 0.40025 0.053255
200 1 0.900814 0.441236 0.0613905
201 1 0.0032048 0.505302 0.993546
202 1 0.0584704 0.553501 0.999596
203 1 0.0483744 0.500458 0.0480223
204 1 0.998431 0.545325 0.0465665
205 1 0.0969766 0.49906 0.998479
206 1 0.133646 0.556728 0.992302
207 1 0.15893 0.505385 0.0520279
208 1 0.104111 0.547213 0.0564591
209 1 0.197472 0.507047 0.995696
210 1 0.249079 0.539528 0.00352435
211 1 0.227526 0.508563 0.0555474
212 1 0.17399 0.563754 0.0574546
213 1 0.293579 0.487001 0.994587
214 1 0.35928 0.531154 0.987164
215 1 0.342837 0.490075 0.0363616
216 1 0.302754 0.537076 0.0383146
217 1 0.39865 0.484654 0.988104
218 1 0.456543 0.544965 0.997681
219 1 0.447534 0.4735 0.0266079
220 1 0.410323 0.524455 0.0356594
221 1 0.500822 0.484795 0.993069
222 1 0.545694 0.533351 0.999871
223 1 0.542002 0.480403 0.0383617
224 1 0.491353 0.529316 0.0472293
225 1 0.593333 0.485258 0.993683
226 1 0.642253 0.536251 0.0072417
227 1 0.64781 0.492367 0.0545584
228 1 0.588186 0.525184 0.0475357
229 1 0.699512 0.490273 0.00841202
230 1 0.758592 0.519693 0.00785991
231 1 0.744349 0.484349 0.0548551
232 1 0.698578 0.528545 0.0634149
233 1 0.807218 0.479329 0.00261835
234 1 0.844367 0.546428 0.00272127
235 1 0.852754 0.479624 0.0633502
236 1 0.801205 0.532406 0.0601103
237 1 0.882268 0.488127 0.00205274
238 1 0.937467 0.546308 0.998166
239 1 0.949303 0.488094 0.059752
240 1 0.896735 0.534211 0.0519957
241 1 0.988831 0.586957 0.997754
242 1 0.0403677 0.635954 0.00137196
243 1 0.0426424 0.58611 0.0525847
244 1 0.991769 0.628646 0.056928
245 1 0.0997845 0.615062 0.00196477
246 1 0.190819 0.618194 0.0181786
247 1 0.135236 0.612639 0.0497027
248 1 0.0897314 0.659236 0.061918
249 1 0.20608 0.655658 0.0674359
250 1 0.255551 0.640977 0.0022475
251 1 0.248196 0.594059 0.0548597
252 1 0.2613 0.681719 0.0570692
253 1 0.302015 0.599069 0.000416124
254 1 0.344684 0.648839 0.991311
255 1 0.349446 0.584397 0.042796
256 1 0.314769 0.642358 0.053052
257 1 0.404477 0.57832 0.00206618
258 1 0.455314 0.630053 0.996548
259 1 0.45378 0.587637 0.04745
260 1 0.392743 0.626764 0.0450225
261 1 0.500736 0.583154 0.00608141
262 1 0.549576 0.630176 0.010775
263 1 0.542713 0.574837 0.0529538
264 1 0.495269 0.635003 0.0550403
265 1 0.591148 0.584014 0.00893426
266 1 0.647031 0.622818 0.0204566
267 1 0.640903 0.572623 0.0573754
268 1 0.591417 0.625462 0.0596618
269 1 0.702559 0.573211 0.00761057
270 1 0.748686 0.620194 0.0170534
271 1 0.751798 0.573394 0.0555628
272 1 0.701746 0.625957 0.0493481
273 1 0.794447 0.582874 0.00657566
274 1 0.83792 0.637822 0.00665852
275 1 0.84505 0.587348 0.0566297
276 1 0.790622 0.623741 0.0610714
277 1 0.893799 0.588903 0.0139909
278 1 0.944309 0.633998 0.0132147
279 1 0.9472 0.584155 0.055754
280 1 0.894857 0.639243 0.0520848
281 1 0.981836 0.687439 0.00282034
282 1 0.0300707 0.739888 0.000530926
283 1 0.0424771 0.704254 0.0486105
284 1 0.977268 0.743737 0.0392157
285 1 0.0992956 0.673001 0.997749
286 1 0.139981 0.729626 0.00193287
287 1 0.151395 0.671648 0.0470976
288 1 0.10187 0.741168 0.0719539
289 1 0.20552 0.745712 0.999096
290 1 0.259497 0.750439 0.040394
291 1 0.244155 0.791576 0.0977294
292 1 0.205141 0.786491 0.0466014
293 1 0.287216 0.70101 0.992248
294 1 0.329922 0.747211 0.00609752
295 1 0.353754 0.6923 0.037403
296 1 0.307569 0.723214 0.0629031
297 1 0.408033 0.676657 0.00382985
298 1 0.435295 0.734243 0.999891
299 1 0.469832 0.687235 0.0337662
300 1 0.415842 0.702621 0.0714975
301 1 0.517241 0.68426 0.979044
302 1 0.560214 0.727174 0.00633174
303 1 0.539366 0.683202 0.0642152
304 1 0.491572 0.751448 0.112556
305 1 0.596693 0.681514 0.997019
306 1 0.655736 0.724291 0.0189216
307 1 0.649561 0.668272 0.0605281
308 1 0.601999 0.724784 0.0573537
309 1 0.703963 0.66443 0.996519
310 1 0.744421 0.739326 0.0202107
311 1 0.740848 0.684836 0.0506863
312 1 0.695908 0.751524 0.0591685
313 1 0.778489 0.695364 0.996826
314 1 0.845253 0.72402 0.994405
315 1 0.821613 0.685963 0.0453097
316 1 0.795821 0.739598 0.0536106
317 1 0.89662 0.680171 0.999118
318 1 0.93571 0.721062 0.988085
319 1 0.947146 0.683529 0.0513059
320 1 0.881871 0.707376 0.0476636
321 1 0.975537 0.770768 0.984505
322 1 0.012883 0.814605 0.0105751
323 1 0.0388053 0.771872 0.0584443
324 1 0.957488 0.802492 0.0383462
325 1 0.0873235 0.799543 0.0202409
326 1 0.121375 0.840434 0.973871
327 1 0.131551 0.794882 0.0640174
328 1 0.124258 0.857552 0.0362712
329 1 0.16173 0.79218 0.997426
330 1 0.176072 0.861057 0.995396
331 1 0.227471 0.818951 0.00147592
332 1 0.167081 0.91105 0.0365351
333 1 0.279276 0.783611 0.996522
334 1 0.352623 0.829185 0.016619
335 1 0.364869 0.750677 0.0678715
336 1 0.240092 0.876074 0.0368074
337 1 0.387582 0.779327 0.0171814
338 1 0.467055 0.842897 0.979985
339 1 0.433901 0.769405 0.0856429
340 1 0.351388 0.814218 0.0790774
341 1 0.493781 0.746415 0.0189437
342 1 0.533639 0.794581 0.0252928
343 1 0.543293 0.809713 0.0914514
344 1 0.467972 0.801257 0.0375806
345 1 0.599569 0.771116 0.010844
346 1 0.61799 0.868368 0.99924
347 1 0.656565 0.80118 0.0488882
348 1 0.579698 0.830727 0.0469062
349 1 0.66641 0.772922 0.987949
350 1 0.724666 0.849942 0.0124173
351 1 0.753514 0.785617 0.065409
352 1 0.703465 0.839968 0.0835235
353 1 0.798665 0.768313 0.995903
354 1 0.839945 0.820257 0.990219
355 1 0.851029 0.771842 0.0403008
356 1 0.787569 0.830012 0.024846
357 1 0.901229 0.780854 0.982308
358 1 0.94693 0.828194 0.985349
359 1 0.914297 0.760108 0.0410105
360 1 0.897555 0.821982 0.0327445
361 1 0.994152 0.880596 0.00369226
362 1 0.0449573 0.931888 0.0174113
363 1 0.0489417 0.867591 0.0349032
364 1 0.982451 0.928931 0.0389795
365 1 0.0997789 0.90212 0.975465
366 1 0.134204 0.959724 0.985501
367 1 0.106735 0.927033 0.0319199
368 1 0.086607 0.955245 0.0819267
369 1 0.17857 0.917744 0.956104
370 1 0.250773 0.944605 0.030713
371 1 0.206538 0.915941 0.103227
372 1 0.179334 0.974669 0.031543
373 1 0.289812 0.896407 0.987505
374 1 0.329841 0.938338 0.0286582
375 1 0.311827 0.864947 0.0462614
376 1 0.3137 0.979216 0.076226
377 1 0.380334 0.891314 0.0124432
378 1 0.424434 0.946948 0.990466
379 1 0.414862 0.830697 0.0795133
380 1 0.355381 0.900971 0.0781908
381 1 0.499392 0.896778 0.998546
382 1 0.447966 0.893545 0.0250388
383 1 0.514981 0.857586 0.045656
384 1 0.433019 0.900922 0.159664
385 1 0.556513 0.885611 0.00846914
386 1 0.68468 0.0029498 0.996107
387 1 0.603304 0.91475 0.0440739
388 1 0.560374 0.965273 0.0254168
389 1 0.676888 0.899499 0.00211677
390 1 0.723609 0.945804 0.00207141
391 1 0.762004 0.894003 0.0293275
392 1 0.727582 0.967052 0.074831
393 1 0.786859 0.914148 0.978391
394 1 0.881096 0.930365 0.965274
395 1 0.823157 0.878328 0.0276042
396 1 0.792314 0.964885 0.0232105
397 1 0.8853 0.872518 0.990869
398 1 0.943912 0.905078 0.983496
399 1 0.937626 0.883715 0.0404574
400 1 0.867439 0.917006 0.0323232
401 1 0.973265 0.989055 0.0736408
402 1 0.0432163 0.0631415 0.121
403 1 0.0187302 0.996862 0.112378
404 1 0.985997 0.0439765 0.138068
405 1 0.114716 0.965423 0.133768
406 1 0.138858 0.0380664 0.116871
407 1 0.175136 0.0192617 0.17507
408 1 0.0841399 0.0209656 0.153658
409 1 0.203928 0.0350462 0.076867
410 1 0.250358 0.0747097 0.0963501
411 1 0.215532 0.957904 0.163803
412 1 0.232707 0.0163301 0.131709
413 1 0.294159 0.0233293 0.111316
414 1 0.311343 0.0736278 0.0844833
415 1 0.331726 0.0589774 0.149788
416 1 0.287325 0.125727 0.130184
417 1 0.380036 0.964808 0.0862089
418 1 0.438144 0.01023 0.111736
419 1 0.496157 0.96393 0.189927
420 1 0.396805 0.0621305 0.131827
421 1 0.44275 0.965127 0.160153
422 1 0.631425 0.994121 0.112624
423 1 0.625206 0.93975 0.156592
424 1 0.511844 0.00303708 0.138344
425 1 0.511137 0.945497 0.116556
426 1 0.606685 0.0263598 0.0560504
427 1 0.68893 0.982713 0.135792
428 1 0.566717 0.0771832 0.16577
429 1 0.721966 0.0349055 0.161628
430 1 0.771735 0.0733486 0.0813135
431 1 0.729387 0.937242 0.137666
432 1 0.670691 0.0472286 0.12137
433 1 0.77064 0.991425 0.11379
434 1 0.834082 0.0570449 0.0815806
435 1 0.832575 0.992585 0.160808
436 1 0.795757 0.0446379 0.13822
437 1 0.877666 0.00819305 0.0891242
438 1 0.942985 0.0449141 0.0919996
439 1 0.941606 0.987 0.139155
440 1 0.869378 0.051891 0.152112
441 1 0.990292 0.106274 0.102283
442 1 0.0580918 0.159988 0.0919802
443 1 0.0422679 0.120359 0.145072
444 1 0.992153 0.147864 0.181617
445 1 0.098539 0.0831792 0.103356
446 1 0.116599 0.150257 0.118396
447 1 0.121683 0.0751904 0.166724
448 1 0.0963775 0.135069 0.183286
449 1 0.159852 0.105986 0.0927275
450 1 0.230393 0.166093 0.124909
451 1 0.232719 0.0979849 0.154536
452 1 0.165457 0.129935 0.154914
453 1 0.270812 0.186752 0.0648574
454 1 0.33517 0.171339 0.1155
455 1 0.333989 0.129872 0.172647
456 1 0.299922 0.179438 0.173539
457 1 0.349774 0.110404 0.115676
458 1 0.443061 0.167226 0.107531
459 1 0.438937 0.118655 0.142799
460 1 0.389257 0.161497 0.144222
461 1 0.5115 0.0447859 0.0611528
462 1 0.544232 0.158811 0.171169
463 1 0.482091 0.0570983 0.128633
464 1 0.49065 0.178364 0.153845
465 1 0.557034 0.0114385 0.0925297
466 1 0.636694 0.171838 0.114039
467 1 0.60357 0.0483387 0.124784
468 1 0.600921 0.125372 0.214408
469 1 0.675023 0.01027 0.064376
470 1 0.705576 0.159621 0.096594
471 1 0.752862 0.0981349 0.151637
472 1 0.690028 0.100127 0.146344
473 1 0.769631 0.153062 0.105609
474 1 0.84747 0.162804 0.10863
475 1 0.827379 0.0999299 0.131952
476 1 0.802936 0.152951 0.155164
477 1 0.880472 0.0996207 0.103815
478 1 0.933609 0.146914 0.0938676
479 1 0.937806 0.105019 0.147966
480 1 0.89357 0.157461 0.155647
481 1 0.000693097 0.212283 0.107578
482 1 0.0463255 0.25792 0.100491
483 1 0.0367673 0.181238 0.14809
484 1 0.00301162 0.253958 0.153654
485 1 0.0973267 0.208123 0.0856913
486 1 0.140572 0.25109 0.0991461
487 1 0.180973 0.194842 0.147263
488 1 0.101121 0.253209 0.159033
489 1 0.170356 0.194039 0.0800774
490 1 0.21325 0.230306 0.10116
491 1 0.247274 0.208245 0.180441
492 1 0.187118 0.256489 0.154757
493 1 0.272254 0.219021 0.122796
494 1 0.325162 0.249111 0.113392
495 1 0.363468 0.212145 0.166284
496 1 0.305567 0.244879 0.182589
497 1 0.382419 0.217637 0.108651
498 1 0.430978 0.261828 0.0930391
499 1 0.43631 0.224409 0.159663
500 1 0.396973 0.266275 0.144796
501 1 0.478559 0.22603 0.111632
502 1 0.540645 0.244388 0.128713
503 1 0.582323 0.193006 0.125122
504 1 0.490807 0.263055 0.158595
505 1 0.578215 0.155317 0.0647043
506 1 0.642146 0.231928 0.0997517
507 1 0.667987 0.143094 0.199191
508 1 0.603948 0.255209 0.139726
509 1 0.718622 0.154864 0.154533
510 1 0.654364 0.191319 0.0475279
511 1 0.755953 0.207114 0.154762
512 1 0.683116 0.204386 0.154377
513 1 0.796327 0.205547 0.0968164
514 1 0.857875 0.252943 0.103908
515 1 0.849032 0.202618 0.157607
516 1 0.799248 0.248272 0.15002
517 1 0.904064 0.204471 0.113867
518 1 0.951013 0.253685 0.102708
519 1 0.951999 0.184942 0.146179
520 1 0.895728 0.249534 0.156342
521 1 0.994036 0.303042 0.104384
522 1 0.0473423 0.353545 0.108374
523 1 0.0541749 0.297306 0.147268
524 1 0.998752 0.340514 0.153368
525 1 0.104303 0.30568 0.107452
526 1 0.143518 0.357031 0.108023
527 1 0.142533 0.302669 0.153598
528 1 0.0910881 0.352467 0.149884
529 1 0.189673 0.309182 0.097113
530 1 0.242585 0.358518 0.100985
531 1 0.242599 0.320445 0.157553
532 1 0.197139 0.363426 0.152641
533 1 0.28285 0.305142 0.101154
534 1 0.327669 0.354085 0.0976371
535 1 0.332011 0.304621 0.156187
536 1 0.298148 0.35237 0.149103
537 1 0.370856 0.297931 0.0996706
538 1 0.439053 0.361508 0.109678
539 1 0.442688 0.310703 0.135722
540 1 0.379665 0.352953 0.131738
541 1 0.500815 0.297629 0.10152
542 1 0.544042 0.346116 0.108691
543 1 0.544856 0.297404 0.166011
544 1 0.495348 0.347589 0.149996
545 1 0.583839 0.294109 0.101474
546 1 0.635809 0.328869 0.0992063
547 1 0.653632 0.287562 0.150048
548 1 0.600205 0.340589 0.150682
549 1 0.701577 0.276134 0.10342
550 1 0.753126 0.345171 0.104102
551 1 0.755758 0.306226 0.152344
552 1 0.696824 0.343836 0.14
553 1 0.805353 0.301445 0.104873
554 1 0.855447 0.349125 0.112061
555 1 0.847922 0.295384 0.160804
556 1 0.802177 0.346683 0.148485
557 1 0.895207 0.302294 0.111646
558 1 0.948876 0.35203 0.112392
559 1 0.944688 0.29544 0.150018
560 1 0.889868 0.351607 0.158809
561 1 0.995777 0.395465 0.0997372
562 1 0.0488321 0.459234 0.0991528
563 1 0.0480154 0.406114 0.142508
564 1 0.000403915 0.445839 0.145328
565 1 0.103713 0.412077 0.105887
566 1 0.145989 0.455173 0.106544
567 1 0.142417 0.401154 0.158386
568 1 0.0978216 0.451523 0.166286
569 1 0.191585 0.406117 0.104534
570 1 0.241416 0.450915 0.104938
571 1 0.242317 0.404957 0.151817
572 1 0.191449 0.453503 0.157154
573 1 0.291034 0.403951 0.111973
574 1 0.329471 0.460006 0.112065
575 1 0.343327 0.406484 0.149217
576 1 0.283265 0.454245 0.161798
577 1 0.392558 0.403262 0.10412
578 1 0.450365 0.431299 0.0925179
579 1 0.455804 0.410099 0.153455
580 1 0.387461 0.456606 0.155241
581 1 0.506049 0.415196 0.110187
582 1 0.557373 0.458061 0.101832
583 1 0.557146 0.39798 0.147331
584 1 0.508304 0.460164 0.158209
585 1 0.583733 0.390894 0.0902809
586 1 0.649374 0.447855 0.101466
587 1 0.651309 0.385111 0.136022
588 1 0.606634 0.440492 0.14657
589 1 0.689508 0.389873 0.0888093
590 1 0.735017 0.440124 0.110767
591 1 0.743605 0.394271 0.157108
592 1 0.678949 0.437762 0.15837
593 1 0.794899 0.401862 0.120167
594 1 0.85302 0.437547 0.109204
595 1 0.83554 0.396662 0.165102
596 1 0.800524 0.448246 0.162735
597 1 0.898967 0.392973 0.108351
598 1 0.948348 0.445519 0.109262
599 1 0.947492 0.400911 0.152806
600 1 0.896384 0.442221 0.159
601 1 0.999867 0.502256 0.100088
602 1 0.0522133 0.537413 0.105066
603 1 0.0494665 0.495437 0.159268
604 1 0.994607 0.528168 0.157461
605 1 0.0946441 0.488862 0.114401
606 1 0.139701 0.54293 0.110342
607 1 0.141573 0.495791 0.159736
608 1 0.100189 0.548388 0.162429
609 1 0.18956 0.500278 0.113871
610 1 0.231094 0.550476 0.104424
611 1 0.244613 0.499621 0.164338
612 1 0.190219 0.543748 0.156282
613 1 0.278062 0.501965 0.116415
614 1 0.354831 0.534832 0.107294
615 1 0.322687 0.505664 0.154128
616 1 0.283073 0.552875 0.156224
617 1 0.421537 0.484463 0.0883411
618 1 0.452842 0.543013 0.104311
619 1 0.446766 0.482094 0.146663
620 1 0.403545 0.530217 0.151273
621 1 0.490605 0.482655 0.0925056
622 1 0.541868 0.525988 0.0922555
623 1 0.565135 0.494436 0.152524
624 1 0.495002 0.523739 0.144839
625 1 0.601686 0.501736 0.102518
626 1 0.655645 0.531018 0.112402
627 1 0.63503 0.496884 0.161729
628 1 0.58851 0.550368 0.152173
629 1 0.698976 0.489965 0.12169
630 1 0.749597 0.531729 0.105676
631 1 0.74951 0.491052 0.165554
632 1 0.691039 0.537693 0.15886
633 1 0.804806 0.486307 0.100126
634 1 0.853362 0.539717 0.0942358
635 1 0.854877 0.487967 0.14709
636 1 0.801242 0.531182 0.149426
637 1 0.89753 0.488674 0.104326
638 1 0.948164 0.53414 0.107821
639 1 0.942808 0.488228 0.156704
640 1 0.890339 0.537679 0.147531
641 1 0.994839 0.581577 0.102032
642 1 0.0370587 0.642814 0.0943271
643 1 0.0399084 0.574792 0.154755
644 1 0.997879 0.637678 0.146622
645 1 0.094279 0.595015 0.0989521
646 1 0.134027 0.653872 0.113825
647 1 0.140295 0.59535 0.148576
648 1 0.0888599 0.637131 0.167203
649 1 0.184694 0.608413 0.104462
650 1 0.269126 0.640961 0.106026
651 1 0.23603 0.598994 0.145073
652 1 0.197733 0.670702 0.127559
653 1 0.2925 0.584082 0.0998147
654 1 0.340805 0.622869 0.100586
655 1 0.351041 0.574734 0.156691
656 1 0.296225 0.614978 0.156234
657 1 0.399659 0.584733 0.0899069
658 1 0.435445 0.636256 0.0949792
659 1 0.465314 0.581792 0.154917
660 1 0.417818 0.618087 0.149825
661 1 0.498091 0.582506 0.0914036
662 1 0.541506 0.619538 0.107769
663 1 0.531574 0.589235 0.162297
664 1 0.508268 0.65137 0.165359
665 1 0.58521 0.57623 0.0984343
666 1 0.649892 0.62323 0.104813
667 1 0.646674 0.582661 0.154482
668 1 0.586783 0.619646 0.154333
669 1 0.699404 0.580726 0.103576
670 1 0.740238 0.630157 0.107854
671 1 0.748122 0.573764 0.149087
672 1 0.696656 0.630287 0.151323
673 1 0.796138 0.575524 0.104689
674 1 0.842824 0.637921 0.100584
675 1 0.843186 0.575771 0.143462
676 1 0.797297 0.628152 0.140941
677 1 0.899803 0.578633 0.100037
678 1 0.950549 0.628969 0.101021
679 1 0.951169 0.591508 0.149509
680 1 0.899731 0.627289 0.146954
681 1 0.991025 0.688071 0.103475
682 1 0.0429107 0.730268 0.108096
683 1 0.0411045 0.691563 0.156049
684 1 0.98786 0.743081 0.144757
685 1 0.0957243 0.699109 0.12021
686 1 0.152312 0.714422 0.095034
687 1 0.14519 0.68783 0.159397
688 1 0.0927202 0.734101 0.167765
689 1 0.208032 0.723543 0.0724204
690 1 0.248916 0.756779 0.16225
691 1 0.190106 0.734712 0.142456
692 1 0.18437 0.853852 0.0652296
693 1 0.322754 0.68197 0.112636
694 1 0.370073 0.723112 0.144744
695 1 0.357744 0.63824 0.16674
696 1 0.310908 0.692215 0.170329
697 1 0.389367 0.667177 0.125903
698 1 0.437838 0.742866 0.144409
699 1 0.448275 0.677101 0.155864
700 1 0.406393 0.757433 0.190346
701 1 0.475209 0.683096 0.102204
702 1 0.545668 0.7516 0.0665645
703 1 0.563554 0.680118 0.158366
704 1 0.506794 0.711483 0.160938
705 1 0.59832 0.675883 0.103243
706 1 0.650504 0.732806 0.102084
707 1 0.649648 0.67471 0.144359
708 1 0.60268 0.742144 0.162018
709 1 0.699558 0.680849 0.0985075
710 1 0.743063 0.730816 0.0990908
711 1 0.738473 0.68187 0.156637
712 1 0.696711 0.724482 0.143514
713 1 0.786308 0.684753 0.103924
714 1 0.840842 0.730043 0.0946776
715 1 0.84736 0.675745 0.145523
716 1 0.800124 0.725643 0.151413
717 1 0.903095 0.673674 0.104675
718 1 0.93521 0.737978 0.100282
719 1 0.945514 0.685338 0.148851
720 1 0.885522 0.726292 0.147062
721 1 0.978876 0.772384 0.0941664
722 1 0.0127474 0.822417 0.0883738
723 1 0.0499816 0.789087 0.144409
724 1 0.986035 0.823461 0.152181
725 1 0.0761755 0.816651 0.0934111
726 1 0.146944 0.923376 0.0926245
727 1 0.106503 0.787183 0.196477
728 1 0.0854197 0.849531 0.153258
729 1 0.128717 0.856918 0.101045
730 1 0.254487 0.851315 0.102382
731 1 0.185732 0.774658 0.197065
732 1 0.208356 0.817685 0.147121
733 1 0.31657 0.746108 0.121625
734 1 0.293679 0.800695 0.0518675
735 1 0.314222 0.763777 0.178926
736 1 0.343698 0.833215 0.160863
737 1 0.391987 0.791455 0.129804
738 1 0.471887 0.875113 0.121465
739 1 0.453553 0.804919 0.152203
740 1 0.312085 0.800347 0.234745
741 1 0.472172 0.822692 0.0983546
742 1 0.519969 0.852144 0.166755
743 1 0.514136 0.786957 0.173901
744 1 0.522176 0.886849 0.218223
745 1 0.612296 0.784637 0.111061
746 1 0.658326 0.883973 0.0547607
747 1 0.657846 0.83245 0.138859
748 1 0.548559 0.752512 0.132422
749 1 0.704464 0.780151 0.114746
750 1 0.768675 0.841579 0.0931507
751 1 0.759191 0.770071 0.142075
752 1 0.718376 0.835334 0.147249
753 1 0.813135 0.787677 0.0980381
754 1 0.844559 0.825658 0.0630794
755 1 0.844013 0.788453 0.150775
756 1 0.800226 0.828899 0.155395
757 1 0.880322 0.782371 0.0971113
758 1 0.937778 0.817723 0.0962689
759 1 0.932178 0.777867 0.145777
760 1 0.894373 0.834072 0.146886
761 1 0.982913 0.880104 0.0910618
762 1 0.0205545 0.935058 0.0852995
763 1 0.0323017 0.87734 0.13225
764 1 0.984375 0.920812 0.154265
765 1 0.0783906 0.898527 0.0912423
766 1 0.184034 0.979875 0.11835
767 1 0.111537 0.96906 0.196493
768 1 0.0607069 0.927641 0.156746
769 1 0.260555 0.92218 0.137438
770 1 0.285158 0.917979 0.0774009
771 1 0.302188 0.810095 0.123618
772 1 0.157525 0.938063 0.166011
773 1 0.308347 0.880495 0.12778
774 1 0.328242 0.966304 0.134544
775 1 0.313759 0.864132 0.209123
776 1 0.279446 0.976066 0.184801
777 1 0.367353 0.913722 0.137242
778 1 0.442047 0.950754 0.0576929
779 1 0.40694 0.825676 0.193386
780 1 0.396359 0.856957 0.136377
781 1 0.421011 0.900223 0.0913939
782 1 0.537319 0.881552 0.115016
783 1 0.567414 0.898342 0.168929
784 1 0.501249 0.911299 0.16293
785 1 0.572433 0.804092 0.168509
786 1 0.66552 0.942204 0.0890116
787 1 0.607757 0.889107 0.116559
788 1 0.58042 0.94747 0.105418
789 1 0.727751 0.899867 0.0880895
790 1 0.780332 0.930898 0.0808851
791 1 0.776659 0.891632 0.146071
792 1 0.685513 0.884606 0.133885
793 1 0.827832 0.886393 0.0893559
794 1 0.833434 0.964843 0.0661126
795 1 0.880717 0.896091 0.139868
796 1 0.829689 0.938904 0.133697
797 1 0.891359 0.88493 0.0782255
798 1 0.93859 0.927836 0.0906158
799 1 0.938921 0.8779 0.128974
800 1 0.88913 0.955091 0.125487
801 1 0.985322 0.981931 0.180677
802 1 0.0285142 0.0261852 0.188681
803 1 0.00774273 0.995843 0.247178
804 1 0.982545 0.0597279 0.238203
805 1 0.0454121 0.963747 0.204365
806 1 0.109874 0.0358516 0.210537
807 1 0.148506 0.981186 0.281461
808 1 0.0557911 0.0389395 0.241428
809 1 0.173397 0.969628 0.216305
810 1 0.234561 0.0396978 0.195123
811 1 0.250838 0.996737 0.246524
812 1 0.172875 0.0372593 0.235087
813 1 0.329926 0.00490069 0.23405
814 1 0.289511 0.0510832 0.265558
815 1 0.417792 0.0308292 0.291615
816 1 0.356381 0.0468065 0.285505
817 1 0.404067 0.0417197 0.221385
818 1 0.450466 0.0338362 0.175087
819 1 0.485372 0.987756 0.251885
820 1 0.393357 0.100479 0.260203
821 1 0.579145 0.948303 0.196261
822 1 0.51296 0.0496824 0.199039
823 1 0.618073 0.957143 0.253091
824 1 0.480445 0.956513 0.312238
825 1 0.602472 0.00525657 0.195785
826 1 0.667051 0.018968 0.183904
827 1 0.677342 0.979132 0.240638
828 1 0.648724 0.0309319 0.258915
829 1 0.717122 0.0341892 0.227932
830 1 0.772952 0.0447549 0.198492
831 1 0.723539 0.978334 0.193354
832 1 0.712846 0.0978262 0.284634
833 1 0.800712 0.984884 0.223087
834 1 0.835475 0.0462923 0.203941
835 1 0.86242 0.994947 0.239367
836 1 0.802057 0.0383762 0.266691
837 1 0.893792 0.997938 0.179544
838 1 0.939959 0.060152 0.193681
839 1 0.944243 0.990628 0.228981
840 1 0.903832 0.0488469 0.253527
841 1 0.00481242 0.0864375 0.180522
842 1 0.0439639 0.156847 0.212232
843 1 0.0322397 0.0990716 0.243778
844 1 0.994585 0.158835 0.258168
845 1 0.0640035 0.0824984 0.193871
846 1 0.145592 0.165039 0.207427
847 1 0.127025 0.10065 0.230085
848 1 0.0960529 0.155541 0.24806
849 1 0.178799 0.0839972 0.198467
850 1 0.208891 0.151033 0.192452
851 1 0.228169 0.0604087 0.254327
852 1 0.21327 0.118445 0.245306
853 1 0.280984 0.0931208 0.218016
854 1 0.37657 0.159095 0.212101
855 1 0.343724 0.0652249 0.221119
856 1 0.32148 0.144596 0.228608
857 1 0.390887 0.0963226 0.187646
858 1 0.441835 0.163342 0.187138
859 1 0.465594 0.0495716 0.23972
860 1 0.426103 0.161697 0.266371
861 1 0.500897 0.112406 0.15919
862 1 0.533404 0.160303 0.265124
863 1 0.533407 0.11444 0.223242
864 1 0.472671 0.120192 0.242071
865 1 0.596479 0.0653755 0.232534
866 1 0.631153 0.0867522 0.175095
867 1 0.654605 0.0941335 0.245936
868 1 0.645068 0.174308 0.246404
869 1 0.708962 0.0906609 0.202666
870 1 0.770736 0.159911 0.209613
871 1 0.761594 0.0971787 0.242012
872 1 0.715551 0.144701 0.243648
873 1 0.810569 0.107776 0.198727
874 1 0.847772 0.157289 0.201954
875 1 0.844768 0.0908791 0.24986
876 1 0.812066 0.147551 0.255925
877 1 0.891078 0.102151 0.20313
878 1 0.94166 0.170394 0.212083
879 1 0.955226 0.113652 0.224797
880 1 0.889523 0.15181 0.247112
881 1 0.999092 0.207736 0.199661
882 1 0.0521353 0.243965 0.190431
883 1 0.0477597 0.200977 0.259853
884 1 0.00792363 0.251946 0.24648
885 1 0.100043 0.199878 0.205933
886 1 0.141491 0.260286 0.203651
887 1 0.14213 0.206628 0.260386
888 1 0.0945234 0.253223 0.24883
889 1 0.202618 0.206158 0.236114
890 1 0.241702 0.262091 0.221941
891 1 0.267494 0.207514 0.244793
892 1 0.193029 0.270433 0.263341
893 1 0.338443 0.203582 0.220794