ITEM: TIMESTEP
53900
ITEM: NUMBER OF ATOMS
4000
ITEM: BOX BOUNDS pp pp pp
0.0000000000000000e+00 1.6795961913825074e+01
0.0000000000000000e+00 1.6795961913825074e+01
0.0000000000000000e+00 1.6795961913825074e+01
ITEM: ATOMS id type xs ys zs
1 1 0.101843 0.378653 0.0490013
2 1 0.983793 0.982987 0.822478
3 1 0.968725 0.713802 0.0640025
4 1 0.704674 0.0217116 0.213291
5 1 0.103642 0.0172188 0.846119
6 1 0.522576 0.693436 0.803816
7 1 0.0884903 0.520594 0.687444
8 1 0.232401 0.141431 0.317414
9 1 0.521762 0.156241 0.152697
10 1 0.395356 0.265497 0.721016
11 1 0.0852937 0.982635 0.127143
12 1 0.296412 0.698261 0.834947
13 1 0.354964 0.966751 0.119421
14 1 0.41408 0.783123 0.841525
15 1 0.631857 0.175161 0.0386253
16 1 0.263951 0.747124 0.983954
17 1 0.646131 0.240748 0.804203
18 1 0.410943 0.909166 0.634314
19 1 0.643249 0.0947218 0.430952
20 1 0.667105 0.1892 0.995304
21 1 0.526724 0.921579 0.262848
22 1 0.72693 0.254009 0.970395
23 1 0.713312 0.258983 0.833323
24 1 0.778059 0.0464353 0.0361159
25 1 0.827626 0.805362 0.0555771
26 1 0.662271 0.301779 0.123106
27 1 0.869771 0.0386658 0.106148
28 1 0.390425 0.884631 0.780205
29 1 0.15515 0.817045 0.14126
30 1 0.828747 0.914116 0.858224
31 1 0.132678 0.0203466 0.117775
32 1 0.28965 0.0512063 0.0361157
33 1 0.910779 0.989751 0.106217
34 1 0.751861 0.18331 0.0564922
35 1 0.0549334 0.789923 0.353012
36 1 0.957968 0.165493 0.931929
37 1 0.543032 0.541151 0.00892894
38 1 0.512851 0.882927 0.942928
39 1 0.0516305 0.123117 0.648469
40 1 0.88924 0.903381 0.111064
41 1 0.896949 0.0933914 0.807667
42 1 0.995741 0.957594 0.510649
43 1 0.898409 0.287433 0.348638
44 1 0.19009 0.679761 0.306405
45 1 0.0209219 0.939598 0.0652419
46 1 0.651673 0.361663 0.0463852
47 1 0.426357 0.674686 0.347832
48 1 1.00049 0.47888 0.206112
49 1 0.18276 0.328771 0.80512
50 1 0.388514 0.789798 0.196952
51 1 0.441875 0.918355 0.236993
52 1 0.121998 0.308292 0.913752
53 1 0.236801 0.265034 0.949498
54 1 0.229833 0.693181 0.853043
55 1 0.676824 0.439933 0.342097
56 1 0.36996 0.190888 0.0906238
57 1 0.41943 0.383941 0.279134
58 1 0.708768 0.141158 0.0185652
59 1 0.147224 0.273565 0.100516
60 1 0.329037 0.556737 0.144956
61 1 0.527022 0.425082 0.961571
62 1 0.370252 0.272351 0.839768
63 1 0.357923 0.244774 0.968661
64 1 0.365856 0.182124 0.713382
65 1 0.469593 0.206738 0.0189443
66 1 0.578709 0.677093 0.211331
67 1 0.250577 0.523173 0.217411
68 1 0.893153 0.553931 0.0695201
69 1 0.370258 0.11216 0.939883
70 1 0.809998 0.0471265 0.578669
71 1 0.815853 0.0731171 0.123708
72 1 0.478719 0.048734 0.854547
73 1 0.932555 0.130096 0.10063
74 1 0.0353577 0.830648 0.144031
75 1 0.735279 0.706541 0.0119612
76 1 0.709175 0.888946 0.14651
77 1 0.714748 0.0450525 0.0827903
78 1 0.923726 0.86337 0.367753
79 1 0.620774 0.889492 0.0228038
80 1 0.53331 0.367841 0.981037
81 1 0.0491684 0.034746 0.844265
82 1 0.975505 0.911279 0.991428
83 1 0.901735 0.933211 0.387341
84 1 0.333449 0.431692 0.234885
85 1 0.913313 0.848831 0.599353
86 1 0.97172 0.38144 0.874238
87 1 0.596542 0.252647 0.756965
88 1 0.167749 0.0530843 0.931059
89 1 0.50639 0.81339 0.196062
90 1 0.031106 0.986877 0.903776
91 1 0.977728 0.259902 0.715475
92 1 0.142704 0.573712 0.224854
93 1 0.335803 0.0620618 0.804445
94 1 0.104309 0.965637 0.80652
95 1 0.492592 0.50527 0.851526
96 1 0.503803 0.3433 0.14658
97 1 0.26033 0.168565 0.0328459
98 1 0.692378 0.77064 0.342495
99 1 0.363671 0.952044 0.35499
100 1 0.71708 0.247623 0.703715
101 1 0.605965 0.133368 0.534078
102 1 0.309171 0.958433 0.756449
103 1 0.934257 0.399257 0.047722
104 1 0.756097 0.193131 0.238321
105 1 0.16527 0.0523807 0.00727837
106 1 0.876729 0.136912 0.775659
107 1 0.680715 0.75067 0.463443
108 1 0.899252 0.174769 0.966084
109 1 0.218089 0.679685 0.427728
110 1 0.495066 0.268389 0.97077
111 1 0.715505 0.675796 0.890254
112 1 0.438803 0.269075 0.0201573
113 1 0.117401 0.142505 0.017627
114 1 0.74808 0.519209 0.444385
115 1 0.630575 0.068783 0.255554
116 1 0.349322 0.649278 0.510294
117 1 0.148093 0.146584 0.265928
118 1 0.580317 0.105621 0.28237
119 1 0.894186 0.15387 0.322959
120 1 0.630728 0.324337 0.907233
121 1 0.185035 0.465787 0.894585
122 1 0.226657 0.0953163 0.763007
123 1 0.133634 0.449373 0.061451
124 1 0.291307 0.642882 0.874176
125 1 0.249345 0.405149 0.992207
126 1 0.468064 0.44269 0.379411
127 1 0.734003 0.905977 0.559183
128 1 0.17018 0.508756 0.822239
129 1 0.58285 0.140298 0.646691
130 1 0.691103 0.427672 0.0677894
131 1 0.867101 0.45407 0.707656
132 1 0.407847 0.489566 0.944221
133 1 0.974191 0.950346 0.679031
134 1 0.0297171 0.590442 0.677587
135 1 0.241476 0.424449 0.123945
136 1 0.364351 0.950066 0.804104
137 1 0.592313 0.156931 0.971529
138 1 0.224349 0.155212 0.96904
139 1 0.658522 0.345606 0.240478
140 1 0.0756922 0.268871 0.293632
141 1 0.0469587 0.140215 0.570834
142 1 0.492117 0.379087 0.090817
143 1 0.423912 0.337499 0.0339515
144 1 0.840414 0.924245 0.402235
145 1 0.981888 0.302745 0.762618
146 1 0.720493 0.593628 0.224938
147 1 0.274997 0.467313 0.0764696
148 1 0.50992 0.326463 0.879431
149 1 0.151101 0.142372 0.0827098
150 1 0.786122 0.310999 0.186987
151 1 0.079226 0.231031 0.252918
152 1 0.947537 0.548941 0.951471
153 1 0.0649664 0.757548 0.250264
154 1 0.538175 0.268161 0.765201
155 1 0.810107 0.47954 0.544338
156 1 0.00952909 0.10092 0.927149
157 1 0.858626 0.388675 0.0905769
158 1 0.0655821 0.353936 0.484697
159 1 0.558817 0.142739 0.876602
160 1 0.600511 0.632791 0.330906
161 1 0.00559533 0.130486 0.0880096
162 1 0.746411 0.214526 0.17491
163 1 0.00598312 0.415252 0.251041
164 1 0.0565594 0.54722 0.852214
165 1 0.0257884 0.536216 0.803823
166 1 0.536491 0.772927 0.879477
167 1 0.15716 0.272777 0.387828
168 1 0.930249 0.715939 0.575905
169 1 0.322973 0.75022 0.870432
170 1 0.201261 0.680457 0.366735
171 1 0.232062 0.645123 0.261207
172 1 0.251738 0.196156 0.194497
173 1 0.19859 0.3724 0.0888692
174 1 0.946419 0.564208 0.0990834
175 1 0.277472 0.365458 0.481747
176 1 0.141302 0.0907879 0.819335
177 1 0.341763 0.509079 0.933844
178 1 0.55095 0.568526 0.219649
179 1 0.42823 0.459048 0.73935
180 1 0.94885 0.162426 0.0227205
181 1 0.311712 0.505131 0.19932
182 1 0.883967 0.201623 0.772666
183 1 0.376632 0.510642 0.289499
184 1 0.390988 0.628377 0.813543
185 1 0.645084 0.707669 0.728535
186 1 0.104074 0.231616 0.0712702
187 1 0.32466 0.596758 0.466626
188 1 0.340798 0.210756 0.875351
189 1 0.745679 0.332814 0.875207
190 1 0.0466043 0.160663 0.0303888
191 1 0.666654 0.372871 0.172007
192 1 0.857621 0.465788 0.177732
193 1 0.430289 0.0507563 0.191911
194 1 0.766259 0.43203 0.0474177
195 1 0.885519 0.598444 0.586032
196 1 0.787026 0.296983 0.927395
197 1 0.703631 0.234667 0.132807
198 1 0.443106 0.452121 0.0487168
199 1 0.103401 0.310878 0.46702
200 1 0.852073 0.799612 0.583108
201 1 0.0169556 0.256927 0.991947
202 1 0.204273 0.708334 0.913667
203 1 0.110452 0.565714 0.974293
204 1 0.163025 0.508286 0.0220861
205 1 0.353056 0.842288 0.548273
206 1 0.438861 0.563415 0.997888
207 1 0.865736 0.721385 0.958721
208 1 0.179537 0.827329 0.828588
209 1 0.178952 0.224655 0.3625
210 1 0.364994 0.752401 0.163554
211 1 0.115838 0.401504 0.98929
212 1 0.188073 0.110815 0.00695231
213 1 0.947506 0.0132128 0.9147
214 1 0.587371 0.480606 0.925999
215 1 0.306203 0.408508 0.820313
216 1 0.223938 0.536917 0.0329441
217 1 0.222349 0.408435 0.184759
218 1 0.559045 0.722324 0.265328
219 1 0.550127 0.888362 0.209429
220 1 0.221927 0.75746 0.292817
221 1 0.521499 0.410852 0.130295
222 1 0.465703 0.506511 0.0849586
223 1 0.699007 0.570502 0.314193
224 1 0.491841 0.507837 0.647532
225 1 0.571293 0.720582 0.092137
226 1 0.540621 0.152992 0.0084647
227 1 0.30524 0.89137 0.0700132
228 1 0.202793 0.462324 0.159754
229 1 0.370553 0.57421 0.943785
230 1 0.174637 0.537794 0.0851651
231 1 0.888733 0.596197 0.913943
232 1 0.254328 0.398272 0.235186
233 1 0.822635 0.686778 0.122857
234 1 0.935651 0.515325 0.209962
235 1 0.167157 0.388687 0.15773
236 1 0.721636 0.467698 0.848796
237 1 0.877183 0.23091 0.355825
238 1 0.523104 0.936849 0.653703
239 1 0.860298 0.319418 0.816595
240 1 0.635842 0.243607 0.245862
241 1 0.793827 0.946069 0.118027
242 1 0.206635 0.91948 0.7759
243 1 0.357618 0.913193 0.70889
244 1 0.279494 0.837629 0.935383
245 1 0.858373 0.909909 0.998816
246 1 0.923571 0.752177 0.0449973
247 1 0.166444 0.736407 0.632109
248 1 0.725895 0.882073 0.0624896
249 1 0.306212 0.976098 0.266175
250 1 0.104485 0.541928 0.912439
251 1 0.326331 0.583556 0.0785699
252 1 0.998124 0.886653 0.805225
253 1 0.175281 0.800369 0.375594
254 1 0.280401 0.411846 0.881082
255 1 0.371991 0.320187 0.327202
256 1 0.419861 0.644067 0.227634
257 1 0.635135 0.429625 0.0274289
258 1 0.0961613 0.719384 0.87715
259 1 0.410812 0.710855 0.0593229
260 1 0.37362 0.53089 0.592289
261 1 0.609163 0.977398 0.915036
262 1 0.641303 0.501632 0.182001
263 1 0.0219185 0.554924 0.35962
264 1 0.421271 0.52224 0.241302
265 1 0.668942 0.479155 0.831343
266 1 0.28878 0.680848 0.971548
267 1 0.499027 0.530592 0.185069
268 1 0.9742 0.113686 0.14258
269 1 0.294792 0.769893 0.0543923
270 1 0.00812871 0.197358 0.188828
271 1 0.910765 0.187984 0.263821
272 1 0.0748118 0.366929 0.818065
273 1 0.0566034 0.590133 0.79276
274 1 0.624838 0.897705 0.824669
275 1 1.00219 0.470219 0.884722
276 1 0.659092 0.254191 0.193659
277 1 0.816004 0.675308 0.825838
278 1 0.79874 0.618541 0.793465
279 1 0.564498 0.629009 0.629407
280 1 0.311984 0.910172 0.837505
281 1 0.992674 0.646014 0.148564
282 1 0.316294 0.216044 0.696076
283 1 0.768424 0.691256 0.155797
284 1 0.913141 0.0469821 0.520489
285 1 0.964913 0.718046 0.491029
286 1 0.111907 0.360183 0.223722
287 1 0.409925 0.0877405 0.119724
288 1 0.926456 0.449687 0.610766
289 1 0.566047 0.872658 0.269049
290 1 0.622298 0.097124 0.485723
291 1 0.264392 0.00591201 0.837469
292 1 0.40766 0.995883 0.332469
293 1 0.35376 0.56949 0.314951
294 1 0.640647 0.913065 0.186586
295 1 0.53954 0.624348 0.324759
296 1 0.425014 0.973328 0.191558
297 1 0.736842 0.450317 0.122773
298 1 0.340164 0.688041 0.150384
299 1 0.29677 0.798752 0.161953
300 1 0.912541 0.418109 0.670959
301 1 0.376398 0.574668 0.632705
302 1 0.718317 0.587531 0.0677099
303 1 0.931851 0.871414 0.00962608
304 1 0.740331 0.0690167 0.705935
305 1 0.226676 0.331674 0.846399
306 1 0.442295 0.677045 0.630451
307 1 0.879653 0.4451 0.872411
308 1 0.511414 0.842249 0.00944166
309 1 0.931541 0.694747 0.811234
310 1 0.925154 0.113037 0.986083
311 1 0.216069 0.745737 0.520647
312 1 0.54092 0.48711 0.966669
313 1 0.915809 0.578287 0.861827
314 1 0.816281 0.980743 0.954242
315 1 0.580446 0.051852 0.475465
316 1 0.686743 0.581059 0.602275
317 1 0.737481 0.887429 0.78372
318 1 0.604645 0.941178 0.866999
319 1 0.0667585 0.479435 0.0521753
320 1 0.511539 0.823111 0.947936
321 1 0.00964858 0.818775 0.380311
322 1 0.645768 0.714978 0.183153
323 1 0.264803 0.504083 0.367973
324 1 0.946912 0.757026 0.215554
325 1 0.0661451 0.594177 0.135551
326 1 0.0175773 0.0020496 0.667465
327 1 0.948555 0.780732 0.89346
328 1 0.243988 0.77358 0.143394
329 1 0.729524 0.56134 0.873977
330 1 0.084743 0.327919 0.0179161
331 1 0.405113 0.00881556 0.919762
332 1 0.519616 0.199065 0.0502515
333 1 0.0937585 0.104298 0.595834
334 1 0.726899 0.741103 0.551137
335 1 0.473309 0.998515 0.15803
336 1 0.131536 0.77306 0.0928103
337 1 0.59836 0.760909 0.0458857
338 1 0.0575413 0.944309 0.0020724
339 1 0.511279 0.570831 0.513225
340 1 0.0068927 0.852795 0.299536
341 1 0.579405 0.692118 0.310686
342 1 0.505155 0.936399 0.0770338
343 1 0.662612 0.845437 0.013591
344 1 0.818133 0.152834 0.774937
345 1 0.836417 0.42181 0.0431311
346 1 0.525559 0.320946 0.0585547
347 1 0.655895 0.122914 0.0475692
348 1 0.591746 0.897297 0.356716
349 1 0.269301 0.60488 0.305176
350 1 0.484503 0.545706 0.903525
351 1 0.685038 0.581808 0.122487
352 1 0.872033 0.113224 0.430775
353 1 0.142402 0.823246 0.883124
354 1 0.742906 0.716409 0.95404
355 1 0.698064 0.673005 0.963498
356 1 0.712125 0.318318 0.377851
357 1 0.483666 0.189198 0.101131
358 1 0.947402 0.0584164 0.823038
359 1 0.144219 0.650441 0.210404
360 1 0.911294 0.188231 0.0626773
361 1 0.391496 0.62226 0.327356
362 1 0.281409 0.388221 0.589944
363 1 0.0425391 0.938582 0.130343
364 1 0.634357 0.0331983 0.0759375
365 1 0.954378 0.909265 0.129282
366 1 0.165025 0.914374 0.587439
367 1 0.226908 0.138495 0.112162
368 1 0.0961631 0.27543 0.40898
369 1 0.308288 0.106838 0.885655
370 1 0.146722 0.424398 0.66838
371 1 0.220615 0.0424787 0.0122978
372 1 0.0481653 0.486901 0.854555
373 1 0.814388 0.485175 0.759071
374 1 0.781781 0.90639 0.507618
375 1 0.396602 0.537937 0.0441628
376 1 0.794542 0.176825 0.319601
377 1 0.53668 0.710626 0.744136
378 1 0.393436 0.950516 0.935266
379 1 0.440854 0.278549 0.490349
380 1 0.25113 0.855878 0.166555
381 1 0.68815 0.755976 0.132303
382 1 0.537417 0.0900534 0.372442
383 1 0.00915842 0.0171537 0.352474
384 1 0.453072 0.960438 0.645393
385 1 0.832793 0.912852 0.0832532
386 1 0.593376 0.334418 0.953338
387 1 0.438971 0.997024 0.691994
388 1 0.339597 0.101221 0.358375
389 1 0.825607 0.00879932 0.849624
390 1 0.545366 0.248144 0.0846457
391 1 0.448201 0.889514 0.774008
392 1 0.362767 0.0496254 0.610832
393 1 0.0577532 0.877005 0.0392166
394 1 0.909741 0.482066 0.683603
395 1 0.377477 0.40077 0.323691
396 1 0.0236037 0.31781 0.873434
397 1 0.314309 0.56774 0.897063
398 1 0.3077 0.764588 0.479111
399 1 0.359455 0.111602 0.277885
400 1 0.755099 0.094796 0.00790627
401 1 0.963054 0.895038 0.765689
402 1 0.322052 0.108342 0.601024
403 1 0.435744 0.575797 0.067042
404 1 0.743193 0.15099 0.183476
405 1 0.375822 0.0217362 0.474683
406 1 0.622075 0.158343 0.111156
407 1 0.253372 0.971799 0.236095
408 1 0.48105 0.0900146 0.299551
409 1 0.972573 0.151933 0.237575
410 1 0.0243224 0.434204 0.054971
411 1 0.0946612 0.169517 0.281136
412 1 0.37105 0.173796 0.305821
413 1 0.321433 0.874334 0.883294
414 1 0.305943 0.963765 0.873046
415 1 0.625902 0.481087 0.128986
416 1 0.521714 0.0862771 0.11257
417 1 0.716111 0.396006 0.133378
418 1 0.446688 0.636059 0.286047
419 1 0.402063 0.107163 0.321293
420 1 0.287257 0.228535 0.853745
421 1 0.457965 0.00473358 0.949563
422 1 0.630869 0.91841 0.407947
423 1 0.0281625 0.6001 0.17528
424 1 0.65639 0.942217 0.245274
425 1 0.305839 0.275614 0.11738
426 1 0.601313 0.0918025 0.959596
427 1 0.723189 0.720176 0.176905
428 1 0.0325563 0.825327 0.798668
429 1 0.679583 0.620881 0.262981
430 1 0.292463 0.168169 0.975788
431 1 0.813282 0.73502 0.971219
432 1 0.551162 0.0809069 0.900999
433 1 0.719972 0.877887 0.973357
434 1 0.98665 0.111293 0.0393406
435 1 0.629844 0.190723 0.201779
436 1 0.921509 0.164684 0.383458
437 1 0.0829209 0.0464855 0.0239596
438 1 0.546861 0.279495 0.838682
439 1 0.131381 0.775711 0.805235
440 1 0.334777 0.973975 0.469135
441 1 0.912794 0.079788 0.304256
442 1 0.244308 0.227712 0.0221943
443 1 0.76435 0.341786 0.0425112
444 1 0.166669 0.0369148 0.306313
445 1 0.0280771 0.236095 0.671651
446 1 0.958896 0.226234 0.82471
447 1 0.654965 0.213431 0.620292
448 1 0.528461 0.0724817 0.952377
449 1 0.0426305 0.0617751 0.18023
450 1 0.220114 0.0444806 0.409543
451 1 0.824225 0.952688 0.814342
452 1 0.549975 0.78162 0.373056
453 1 0.172498 0.299009 0.868573
454 1 0.220401 0.815745 0.937369
455 1 0.44972 0.722595 0.380047
456 1 0.806 0.677156 0.993491
457 1 0.0506097 0.00759581 0.227143
458 1 0.400267 0.232758 0.250923
459 1 0.714325 0.983296 0.512009
460 1 0.245302 0.490048 0.786263
461 1 0.391277 0.861246 0.460175
462 1 0.0255093 0.0166545 0.0329779
463 1 0.377247 0.834031 0.60295
464 1 0.600006 0.802419 0.273373
465 1 0.748391 0.996753 0.917782
466 1 0.626752 0.279484 0.958363
467 1 0.644653 0.867273 0.958475
468 1 0.513127 0.158096 0.275906
469 1 0.0765612 0.27135 0.132289
470 1 0.668686 0.304439 0.807775
471 1 0.07089 0.3385 0.113554
472 1 0.933437 0.223738 0.985186
473 1 0.0451542 0.0845253 0.468669
474 1 0.205199 0.408434 0.667315
475 1 0.678268 0.932784 0.609095
476 1 0.786324 0.949322 0.910465
477 1 0.82697 0.855158 0.225837
478 1 0.24527 0.27965 0.220247
479 1 0.9341 0.195334 0.532463
480 1 0.453418 0.810084 0.214036
481 1 0.374752 0.525568 0.822473
482 1 0.994893 0.0216584 0.87276
483 1 0.360601 0.255889 0.0883059
484 1 0.0186173 0.290176 0.166194
485 1 0.975691 0.285863 0.121216
486 1 0.0977817 0.476856 0.40642
487 1 0.0703117 0.426335 0.00992525
488 1 0.0070034 0.835539 0.924843
489 1 0.959771 0.308338 0.96752
490 1 0.101371 0.458073 0.531109
491 1 0.540247 0.136186 0.691101
492 1 0.257186 0.392398 0.937977
493 1 0.174759 0.0902404 0.698044
494 1 0.308876 0.964836 0.813633
495 1 0.40113 0.964697 0.396785
496 1 0.534402 0.389662 0.86432
497 1 0.13117 0.832891 0.0870841
498 1 0.271934 0.223429 0.141229
499 1 0.0463121 0.133596 0.137429
500 1 0.260287 0.866751 0.790562
501 1 0.577916 0.123961 0.0959665
502 1 0.226829 0.345266 0.146579
503 1 0.488951 0.595293 0.315601
504 1 0.562846 0.686111 0.89505
505 1 0.73745 0.844412 0.668552
506 1 0.368266 0.4917 0.230938
507 1 0.819008 0.218781 0.365959
508 1 0.690179 0.206396 0.869284
509 1 0.70141 0.347538 0.0878974
510 1 0.214764 0.957605 0.098739
511 1 0.72081 0.306942 0.215371
512 1 0.49108 0.635551 0.504191
513 1 0.478407 0.239431 0.227939
514 1 0.948171 0.583227 0.0325857
515 1 0.181661 0.759824 0.140147
516 1 0.715838 0.343457 0.162043
517 1 0.888764 0.944055 0.919983
518 1 0.0299243 0.762502 0.445654
519 1 0.898778 0.326465 0.39646
520 1 0.138604 0.074987 0.271745
521 1 0.325328 0.161458 0.837142
522 1 0.338437 0.542961 0.376574
523 1 0.67646 0.910231 0.0303729
524 1 0.189281 0.395659 0.0322569
525 1 0.164729 0.457987 0.745244
526 1 0.511589 0.868067 0.832921
527 1 0.101563 0.911998 0.021515
528 1 0.264005 0.321818 0.737423
529 1 0.606293 0.32843 0.135062
530 1 0.0972893 0.385383 0.158393
531 1 0.00943386 0.182851 0.0649656
532 1 0.223253 0.24279 0.894804
533 1 0.405447 0.372804 0.531096
534 1 0.740299 0.925657 0.618511
535 1 0.366981 0.549169 0.201472
536 1 0.30227 0.309535 0.256019
537 1 0.542086 0.205148 0.742132
538 1 0.937588 0.454359 0.889451
539 1 0.266242 0.886613 0.335623
540 1 0.409612 0.41439 0.205085
541 1 0.427565 0.470841 0.197995
542 1 0.475858 0.717005 0.247116
543 1 0.462913 0.0967566 0.357995
544 1 0.127587 0.198201 0.828942
545 1 0.471891 0.451407 0.269091
546 1 0.308696 0.482643 0.729215
547 1 0.546978 0.426279 0.76055
548 1 0.833695 0.0654417 0.061629
549 1 0.861929 0.777329 0.108254
550 1 0.85168 0.209231 0.161986
551 1 0.927937 0.351147 0.723208
552 1 0.104799 0.225729 0.9275
553 1 0.760738 0.0377364 0.233346
554 1 0.67971 0.506666 0.421846
555 1 0.835244 0.46674 0.0837379
556 1 0.0566432 0.168512 0.751982
557 1 0.151258 0.425284 0.880561
558 1 0.805731 0.20596 0.0693768
559 1 0.939629 0.99841 0.283748
560 1 0.745513 0.229791 0.29402
561 1 0.709487 0.0626717 0.367834
562 1 0.0362369 0.400556 0.113388
563 1 0.190234 0.48478 0.0680199
564 1 0.735152 0.0390281 0.300024
565 1 0.0137719 0.888507 0.108448
566 1 0.895183 0.649062 0.283377
567 1 0.428726 0.231937 0.438884
568 1 0.892405 0.437051 0.250746
569 1 0.968222 0.070076 0.954198
570 1 0.0942982 0.418094 0.102149
571 1 0.886253 0.43701 0.0692373
572 1 0.157832 0.684094 0.992819
573 1 0.249121 0.676488 0.687596
574 1 0.260323 0.23635 0.716425
575 1 0.519822 0.382524 0.664421
576 1 0.401343 0.935969 0.102963
577 1 0.185553 0.456364 0.0097359
578 1 0.417405 0.114054 0.906114
579 1 0.436813 0.534567 0.867515
580 1 0.511104 0.698872 0.0746959
581 1 0.631714 0.580581 0.967552
582 1 0.582321 0.476336 0.188253
583 1 0.416713 0.334923 0.92848
584 1 0.999141 0.264643 0.069642
585 1 0.364005 0.370147 0.732427
586 1 0.982591 0.135946 0.884068
587 1 0.207954 0.806893 0.176261
588 1 0.308328 0.354593 0.0798719
589 1 0.56026 0.452521 0.587027
590 1 0.809076 0.348544 0.0728755
591 1 0.851206 0.292588 0.951043
592 1 0.697403 0.426542 0.00367335
593 1 0.612916 0.299873 0.277053
594 1 0.749871 0.448941 0.349694
595 1 0.547416 0.178447 0.10593
596 1 0.735642 0.15939 0.298871
597 1 0.991545 0.508691 0.964671
598 1 0.105795 0.771351 0.291804
599 1 0.859768 0.203822 0.0936041
600 1 0.732513 0.896861 0.901852
601 1 0.9081 0.192976 0.133722
602 1 0.194306 0.323098 0.197001
603 1 0.0899132 0.208126 0.350267
604 1 0.289191 0.801084 0.438921
605 1 0.114039 0.963449 0.988218
606 1 0.82563 0.543005 0.770003
607 1 0.242331 0.686556 0.750008
608 1 0.21995 0.0463796 0.888444
609 1 0.922772 0.677287 0.0523044
610 1 0.853541 0.434474 0.131794
611 1 0.339853 0.701868 0.258794
612 1 0.270979 0.889191 0.120888
613 1 0.423168 0.45204 0.128856
614 1 0.090279 0.475077 0.117643
615 1 0.252922 0.112031 0.00401864
616 1 0.186466 0.667542 0.138178
617 1 0.779019 0.315723 0.823952
618 1 0.289307 0.409375 0.755519
619 1 0.157474 0.725809 0.269305
620 1 0.0782508 0.0389864 0.144514
621 1 0.560092 0.576128 0.143607
622 1 0.624669 0.157992 0.341382
623 1 0.789434 0.579066 0.948352
624 1 0.658277 0.140628 0.96146
625 1 0.161019 0.737196 0.75737
626 1 0.890545 0.327024 0.022696
627 1 0.638101 0.366355 0.99637
628 1 0.106694 0.41803 0.231215
629 1 0.780889 0.693626 0.326129
630 1 0.512924 0.749904 0.286574
631 1 0.0128904 0.605004 0.09521
632 1 0.855996 0.633721 0.184182
633 1 0.0721762 0.351181 0.327599
634 1 0.83504 0.531157 0.0731213
635 1 0.959214 0.3869 0.160657
636 1 0.691492 0.75883 0.0553667
637 1 0.648847 0.145534 0.236355
638 1 0.770991 0.611281 0.88572
639 1 0.922547 0.156847 0.877069
640 1 0.366347 0.532409 0.989163
641 1 0.428379 0.758272 0.92764
642 1 0.398306 0.895564 0.264416
643 1 0.654 0.607283 0.0331604
644 1 0.337125 0.514873 0.0687421
645 1 0.0245255 0.210398 0.462509
646 1 0.436223 0.615133 0.362335
647 1 0.428295 0.838776 0.283454
648 1 0.0837053 0.730731 0.159601
649 1 0.130694 0.883682 0.217872
650 1 0.0666939 0.070473 0.962702
651 1 0.0819765 0.739477 0.753903
652 1 0.151983 0.828408 0.00936016
653 1 0.759681 0.371897 0.81021
654 1 0.848981 0.268463 0.468409
655 1 0.173109 0.451089 0.401595
656 1 0.323645 0.538504 0.654654
657 1 0.463872 0.87559 0.885907
658 1 0.721527 0.578813 0.538718
659 1 0.601458 0.201637 0.826774
660 1 0.357826 0.787212 0.0485447
661 1 0.304382 0.457743 0.396361
662 1 0.796049 0.737186 0.439927
663 1 0.436326 0.0507183 0.31964
664 1 0.431161 0.622159 0.102873
665 1 0.48228 0.78124 0.413658
666 1 0.0687474 0.934058 0.24265
667 1 0.385819 0.51223 0.350531
668 1 0.0901741 0.5259 0.0138449
669 1 0.716409 0.47202 0.45938
670 1 0.862208 0.605519 0.681623
671 1 0.719147 0.281953 0.0834384
672 1 0.819143 0.330333 0.865256
673 1 0.969761 0.572655 0.224072
674 1 0.226775 0.718819 0.162114
675 1 0.120643 0.357083 0.711594
676 1 0.0858034 0.274768 0.352317
677 1 0.56378 0.669067 0.0361005
678 1 0.819804 0.48377 0.937125
679 1 0.0164048 0.984956 0.304375
680 1 0.970378 0.579311 0.159894
681 1 0.543447 0.150178 0.413361
682 1 0.860035 0.635541 0.95971
683 1 0.312077 0.0485343 0.927635
684 1 0.729181 0.836673 0.107877
685 1 0.0579027 0.745726 0.934576
686 1 0.200367 0.635353 0.59406
687 1 0.828701 0.930097 0.544179
688 1 0.21855 0.945304 0.994622
689 1 0.114589 0.415416 0.742585
690 1 0.212265 0.887527 0.136698
691 1 0.52621 0.0319395 0.424047
692 1 0.854506 0.737618 0.147101
693 1 0.454312 0.70518 0.183982
694 1 0.774132 0.711678 0.266186
695 1 0.1463 0.500534 0.516954
696 1 0.408661 0.173109 0.412322
697 1 0.739686 0.427582 0.182703
698 1 0.125692 0.371932 0.894199
699 1 0.508505 0.693403 0.998316
700 1 0.688156 0.562761 0.380815
701 1 0.504636 0.0492567 0.0299802
702 1 0.68994 0.999499 0.966687
703 1 0.494897 0.350299 0.501162
704 1 0.0410064 0.0956087 0.0176564
705 1 0.326246 0.734753 0.993386
706 1 0.875942 0.814975 0.391408
707 1 0.96814 0.689486 0.223835
708 1 0.653786 0.0140101 0.530814
709 1 0.329053 0.821591 0.382412
710 1 0.971571 0.859679 0.592655
711 1 0.385816 0.630829 0.894214
712 1 0.973981 0.854661 0.869589
713 1 0.423657 0.588561 0.748195
714 1 0.0308779 0.443131 0.813228
715 1 0.951761 0.429426 0.23054
716 1 0.564651 0.418286 0.640733
717 1 0.575716 0.834162 0.192214
718 1 0.25694 0.627603 0.985624
719 1 0.303052 0.06306 0.394368
720 1 0.800037 0.895994 0.368294
721 1 0.0301489 0.937769 0.195861
722 1 0.438553 0.64047 0.964665
723 1 0.316499 0.657604 0.198367
724 1 0.975068 0.721294 0.160108
725 1 0.0944734 0.167235 0.606217
726 1 0.345949 0.27163 0.234325
727 1 0.884415 0.307605 0.159623
728 1 0.788784 0.488715 0.841976
729 1 0.206933 0.806943 0.325665
730 1 0.988501 0.741347 0.837045
731 1 0.512602 0.72597 0.366507
732 1 0.334899 0.706324 0.381256
733 1 0.14539 0.71589 0.177557
734 1 0.565101 0.663815 0.972679
735 1 0.123074 0.733106 0.452311
736 1 0.113363 0.162394 0.912186
737 1 0.403287 0.584483 0.251347
738 1 0.178821 0.303637 0.251512
739 1 0.508671 0.842493 0.250629
740 1 0.202761 0.87176 0.983899
741 1 0.871496 0.727306 0.583723
742 1 0.542971 0.885917 0.331458
743 1 0.36446 0.767697 0.60859
744 1 0.553388 0.0937607 0.522075
745 1 0.509533 0.986114 0.629546
746 1 0.615907 0.683575 0.0509925
747 1 0.444948 0.0270873 0.0472045
748 1 0.128226 0.687363 0.0621264
749 1 0.748973 0.226244 0.101324
750 1 0.67831 0.163846 0.103969
751 1 0.717341 0.668018 0.0607817
752 1 0.510952 0.61872 0.153686
753 1 0.603438 0.0179094 0.237372
754 1 0.0884884 0.161784 0.807312
755 1 0.922609 0.365296 0.968182
756 1 0.89239 0.607773 0.0990192
757 1 0.319937 0.0349742 0.505926
758 1 0.992827 0.648622 0.0594894
759 1 0.364066 0.937297 0.296769
760 1 0.632332 0.921562 0.924363
761 1 0.0708077 0.443969 0.16534
762 1 0.305401 0.171909 0.0915846
763 1 0.0322225 0.855079 0.989456
764 1 0.917327 0.0806888 0.130683
765 1 0.0655022 0.90291 0.821266
766 1 0.390933 0.263737 0.926201
767 1 0.221684 0.85325 0.591886
768 1 0.936304 0.671583 0.94212
769 1 0.220012 0.830874 0.688414
770 1 0.893062 0.0599581 0.210654
771 1 0.187974 0.889238 0.878691
772 1 0.93255 0.165261 0.750514
773 1 0.389072 0.11864 0.37829
774 1 0.14036 0.349939 0.584308
775 1 0.359024 0.919825 0.446626
776 1 0.495976 0.945061 0.149877
777 1 0.751313 0.208044 0.891263
778 1 0.427276 0.737647 0.654435
779 1 0.158304 0.947288 0.228576
780 1 0.28166 0.839597 0.587498
781 1 0.508396 0.278382 0.11642
782 1 0.380359 0.76304 0.4054
783 1 0.674453 0.0870466 0.93608
784 1 0.455815 0.154364 0.774849
785 1 0.899724 0.616671 0.399155
786 1 0.896963 0.0153146 0.170202
787 1 0.791418 0.152815 0.0183786
788 1 0.617382 0.127144 0.907139
789 1 0.7437 0.755392 0.472076
790 1 0.622956 0.924697 0.293571
791 1 0.410999 0.980119 0.270895
792 1 0.341421 0.208033 0.254937
793 1 0.751321 0.946267 0.228575
794 1 0.469768 0.7919 0.27955
795 1 0.201258 0.91303 0.210853
796 1 0.627587 0.702415 0.257364
797 1 0.978311 0.963249 0.137666
798 1 0.780276 0.319721 0.117622
799 1 0.339926 0.89565 0.120073
800 1 0.761753 0.724354 0.898351
801 1 0.873427 0.91639 0.750751
802 1 0.296075 0.971947 0.170534
803 1 0.113706 0.150686 0.136381
804 1 0.539659 0.37043 0.920294
805 1 0.754116 0.878526 0.22531
806 1 0.185951 0.409104 0.96906
807 1 0.824648 0.330678 0.390665
808 1 0.388368 0.145712 0.0368848
809 1 0.886574 0.0709396 0.998674
810 1 0.387323 0.833072 0.394211
811 1 0.0883155 0.0990979 0.305296
812 1 0.21209 0.0614852 0.334261
813 1 0.0673867 0.164184 0.459199
814 1 0.287901 0.944678 0.107551
815 1 0.230992 0.474747 0.67064
816 1 0.351913 0.0285926 0.348339
817 1 0.976441 0.753613 0.412175
818 1 0.695897 0.966114 0.391036
819 1 0.324832 0.799111 0.577942
820 1 0.0747481 0.0384783 0.0833299
821 1 0.763666 0.108317 0.288787
822 1 0.00208765 0.104452 0.371884
823 1 0.489896 0.698814 0.577837
824 1 0.411915 0.295832 0.290005
825 1 0.644738 0.0460798 0.19013
826 1 0.977253 0.698655 0.340655
827 1 0.778823 0.817716 0.0271555
828 1 0.658531 0.638937 0.0830338
829 1 0.847772 0.257465 0.401858
830 1 0.423908 0.987866 0.558728
831 1 0.453975 0.814738 0.957641
832 1 0.579767 0.818238 0.990139
833 1 0.500636 0.292768 0.194818
834 1 0.635009 0.0153913 0.973867
835 1 0.0732479 0.276261 0.839607
836 1 0.89921 0.724234 0.0901895
837 1 0.631541 0.810553 0.947252
838 1 0.883895 0.284474 0.235905
839 1 0.842149 0.169637 0.260316
840 1 0.0232568 0.14987 0.327912
841 1 0.192517 0.108549 0.943149
842 1 0.139244 0.8733 0.803558
843 1 0.0924905 0.0512796 0.243254
844 1 0.498282 0.743619 0.82833
845 1 0.671409 0.292919 0.280371
846 1 0.130027 0.0160987 0.0508859
847 1 0.132608 0.92476 0.7685
848 1 0.0209775 0.566109 0.270067
849 1 0.0588996 0.190343 0.866476
850 1 0.243146 0.091435 0.0706069
851 1 0.303397 0.0049241 0.627643
852 1 0.165862 0.925207 0.0251935
853 1 0.15529 0.641769 0.851398
854 1 0.362862 0.435707 0.167122
855 1 0.168725 0.21267 0.783071
856 1 0.25942 0.160108 0.505001
857 1 0.14541 0.394497 0.400132
858 1 0.537971 0.385323 0.0495033
859 1 0.739078 0.813364 0.535327
860 1 0.56794 0.371145 0.483142
861 1 0.541111 0.227852 0.989453
862 1 0.506507 0.317812 0.354548
863 1 0.64595 0.874025 0.471128
864 1 0.612527 0.450585 0.602686
865 1 0.612422 0.222611 0.0665281
866 1 0.903273 0.285318 0.96571
867 1 0.779017 0.884234 0.0841267
868 1 0.817832 0.237691 0.270383
869 1 0.110166 0.19982 0.180912
870 1 0.349464 0.131968 0.0870077
871 1 0.856071 0.220028 0.22599
872 1 0.359565 0.0604423 0.149829
873 1 0.819053 0.269445 0.81602
874 1 0.691707 0.0939475 0.129134
875 1 0.562889 0.845282 0.390483
876 1 0.880321 0.72898 0.884317
877 1 0.707367 0.427737 0.51418
878 1 0.90488 0.994015 0.229959
879 1 0.957458 0.223068 0.0457679
880 1 0.00755714 0.927739 0.321154
881 1 0.559604 0.716271 0.56118
882 1 0.675563 0.252112 0.927546
883 1 0.304706 0.176037 0.54468
884 1 0.960368 0.456494 0.104761
885 1 0.106116 0.697741 0.257421
886 1 0.830518 0.133808 0.552207
887 1 0.953431 0.94685 0.0835498
888 1 0.539397 0.201013 0.199649
889 1 0.167031 0.457799 0.94608
890 1 0.846801 0.444445 0.987074
891 1 0.429287 0.408051 1.00055
892 1 0.679458 0.18875 0.924107
893 1 0.238656 0.51426 0.926815
894 1 0.166923 0.576297 0.596014
895 1 0.636762 0.796987 0.467601
896 1 0.0857189 0.109608 0.0739031
897 1 0.133757 0.0957895 0.97817
898 1 0.791026 0.36042 0.285548
899 1 0.400625 0.0108866 0.137127
900 1 0.501073 0.289772 0.404438
901 1 0.636087 0.384557 0.661401
902 1 0.476483 0.314784 0.0102153
903 1 0.461585 0.977221 0.358003
904 1 0.497523 0.983366 0.4198