ITEM: TIMESTEP
39200
ITEM: NUMBER OF ATOMS
4000
ITEM: BOX BOUNDS pp pp pp
0.0000000000000000e+00 1.6795961913825074e+01
0.0000000000000000e+00 1.6795961913825074e+01
0.0000000000000000e+00 1.6795961913825074e+01
ITEM: ATOMS id type xs ys zs
1 1 0.139145 0.0410039 0.0670584
2 1 0.924708 0.137396 0.927029
3 1 0.0220243 0.018085 0.0159753
4 1 0.284588 0.173875 0.169309
5 1 0.195524 0.922295 0.103669
6 1 0.278595 0.0807278 0.0482477
7 1 0.288515 0.970556 0.812659
8 1 0.054748 0.00938229 0.118908
9 1 0.375555 0.00298478 0.998231
10 1 0.310367 0.130154 0.0450626
11 1 0.885544 0.87749 0.0885759
12 1 0.326606 0.127668 0.827624
13 1 0.364293 0.0744161 0.14234
14 1 0.480922 0.968805 0.87544
15 1 0.394446 0.309001 0.116523
16 1 0.190122 0.0140967 0.143947
17 1 0.458615 0.929868 0.813917
18 1 0.401335 0.00783298 0.916972
19 1 0.532682 0.845849 0.209355
20 1 0.367148 0.137324 0.298957
21 1 0.436701 0.908279 0.186782
22 1 0.388706 0.20858 0.00567779
23 1 0.636978 0.00206481 0.980058
24 1 0.748043 0.238922 0.756975
25 1 0.510729 0.794459 0.920344
26 1 0.597798 0.939837 0.0794281
27 1 0.603725 0.196423 0.221639
28 1 0.641146 0.93872 0.963171
29 1 0.625621 0.997864 0.106442
30 1 0.810148 0.899477 0.850478
31 1 0.789417 0.00571764 0.199743
32 1 0.77745 0.186843 0.159095
33 1 0.824423 0.868673 0.0555167
34 1 0.673936 0.0720313 0.822575
35 1 0.68109 0.940425 0.195273
36 1 0.84171 0.155282 0.840878
37 1 0.568266 0.0320412 0.968814
38 1 0.652378 0.957631 0.819042
39 1 0.949549 0.996819 0.861725
40 1 0.936146 0.883927 0.989277
41 1 0.882408 0.138216 0.735931
42 1 0.0624278 0.950307 0.85805
43 1 0.0713844 0.0328016 0.279721
44 1 0.0438136 0.0374916 0.193389
45 1 0.0533821 0.948322 0.126691
46 1 0.459304 0.221141 0.103401
47 1 0.274697 0.923017 0.000549942
48 1 0.264149 0.354373 0.158405
49 1 0.119577 0.914772 0.815087
50 1 0.350835 0.149155 0.226947
51 1 0.276566 0.863041 0.157779
52 1 0.0186674 0.374651 0.0835697
53 1 0.12568 0.147219 0.891089
54 1 0.514214 0.963086 0.804354
55 1 0.577704 0.0409829 0.373529
56 1 0.383568 0.271452 0.0600023
57 1 0.614854 0.0492182 0.145759
58 1 0.596157 0.118503 0.0289533
59 1 0.255459 0.100023 0.105474
60 1 0.410192 0.103371 0.0636368
61 1 0.539457 0.172845 0.869336
62 1 0.520219 0.319231 0.276366
63 1 0.677146 0.99187 0.0739608
64 1 0.523311 0.98753 0.996621
65 1 0.539049 0.86952 0.765892
66 1 0.475466 0.0807761 0.0494395
67 1 0.47727 0.859377 0.207251
68 1 0.137429 0.0667378 0.121985
69 1 0.561566 0.974618 0.930011
70 1 0.764935 0.13658 0.828927
71 1 0.72351 0.096995 0.07224
72 1 0.627886 0.172488 0.915492
73 1 0.788663 0.0261656 0.925496
74 1 0.834169 0.105015 0.057713
75 1 0.686604 0.173585 0.944201
76 1 0.726776 0.0728092 0.218272
77 1 0.728324 0.0236534 0.111448
78 1 0.714954 0.0325225 0.263494
79 1 0.0376036 0.0674295 0.851393
80 1 0.634315 0.384332 0.214098
81 1 0.118315 0.219946 0.984216
82 1 0.868544 0.10856 0.973144
83 1 0.96493 0.11335 0.0456338
84 1 0.126005 0.395557 0.0752832
85 1 0.810757 0.199718 0.822928
86 1 0.591239 0.451561 0.93555
87 1 0.51875 0.369825 0.95187
88 1 0.25836 0.228366 0.922151
89 1 0.282644 0.211739 0.114211
90 1 0.0566918 0.229057 0.941544
91 1 0.0506324 0.167861 0.0498101
92 1 0.241278 0.171438 0.952753
93 1 0.257388 0.196268 0.68728
94 1 0.287518 0.149148 0.773364
95 1 0.499292 0.0443614 0.208903
96 1 0.348449 0.167944 0.973167
97 1 0.322527 0.101234 0.89894
98 1 0.454482 0.0153214 0.160768
99 1 0.208062 0.129673 0.222036
100 1 0.523383 0.128662 0.0459101
101 1 0.61254 0.10004 0.846528
102 1 0.373518 0.0982546 0.957989
103 1 0.752377 0.412739 0.013827
104 1 0.655393 0.271481 0.970186
105 1 0.397596 0.0267891 0.142786
106 1 0.63994 0.110136 0.732842
107 1 0.663418 0.907955 0.133549
108 1 0.535197 0.232547 0.157063
109 1 0.919267 0.886117 0.81607
110 1 0.872006 0.485487 0.0207852
111 1 0.804385 0.388074 0.0513031
112 1 0.83147 0.170918 0.0589922
113 1 0.937372 0.0660531 0.0630636
114 1 0.578282 0.296607 0.0525895
115 1 0.797538 0.0928851 0.105669
116 1 0.71035 0.362952 0.030722
117 1 0.0418377 0.19208 0.109553
118 1 0.775653 0.975157 0.0116319
119 1 0.889518 0.138167 0.201805
120 1 0.865986 0.163071 0.111341
121 1 0.0852284 0.460866 0.97171
122 1 0.240906 0.346078 0.896191
123 1 0.853631 0.248033 0.979416
124 1 0.233275 0.555901 0.957386
125 1 0.165206 0.189595 0.985184
126 1 0.245164 0.441589 0.996437
127 1 0.0723143 0.358228 0.766845
128 1 0.225852 0.410929 0.942458
129 1 0.412705 0.0645511 0.904355
130 1 0.564314 0.177265 0.025947
131 1 0.138987 0.26629 0.740767
132 1 0.429421 0.303251 0.0178687
133 1 0.132959 0.219631 0.316767
134 1 0.412062 0.396918 0.804332
135 1 0.304885 0.435386 0.0520328
136 1 0.405499 0.133791 0.200749
137 1 0.338302 0.266447 0.0134033
138 1 0.430906 0.103795 0.983579
139 1 0.595284 0.332139 0.208854
140 1 0.274699 0.33793 0.022445
141 1 0.508572 0.314728 0.838471
142 1 0.742727 0.362454 0.877446
143 1 0.559735 0.154315 0.974347
144 1 0.710036 0.0569168 0.460195
145 1 0.875578 0.259814 0.916642
146 1 0.758402 0.443001 0.954802
147 1 0.591833 0.314276 0.146463
148 1 0.553557 0.213326 0.938117
149 1 0.76796 0.276251 0.981491
150 1 0.66625 0.384573 0.118463
151 1 0.893794 0.253425 0.172646
152 1 0.848067 0.294944 0.852944
153 1 0.820435 0.281801 0.0180691
154 1 0.804743 0.356444 0.895493
155 1 0.844312 0.367082 0.943882
156 1 0.938698 0.485277 0.98762
157 1 0.0747463 0.468427 0.043296
158 1 0.173082 0.33394 0.896113
159 1 0.124069 0.239828 0.105994
160 1 0.781378 0.474011 0.0450459
161 1 0.950033 0.218528 0.152579
162 1 0.134693 0.49512 0.0591048
163 1 0.122257 0.552145 0.0811462
164 1 0.176201 0.538895 0.0818472
165 1 0.149774 0.411518 0.968303
166 1 0.117986 0.501618 0.911962
167 1 0.972373 0.377952 0.210446
168 1 0.0431012 0.502327 0.89313
169 1 0.277979 0.561287 0.913634
170 1 0.155816 0.497985 0.211057
171 1 0.448604 0.313847 0.822378
172 1 0.158989 0.241819 0.241415
173 1 0.425859 0.318647 0.956306
174 1 0.222179 0.492339 0.124693
175 1 0.252646 0.451021 0.0720191
176 1 0.227002 0.23769 0.973233
177 1 0.645364 0.469412 0.916822
178 1 0.526104 0.538739 0.12806
179 1 0.443378 0.186101 0.906207
180 1 0.225267 0.500912 0.0470867
181 1 0.490995 0.477681 0.0251601
182 1 0.710629 0.169937 0.0576503
183 1 0.500281 0.33431 0.131286
184 1 0.340667 0.436044 0.938144
185 1 0.592971 0.555823 0.956296
186 1 0.712517 0.462122 0.123199
187 1 0.38949 0.368704 0.748124
188 1 0.422058 0.126563 0.923683
189 1 0.580418 0.274278 0.993161
190 1 0.805893 0.332486 0.077227
191 1 0.766984 0.300068 0.0421313
192 1 0.678439 0.536295 0.174235
193 1 0.560208 0.268442 0.108978
194 1 0.965984 0.350998 0.041949
195 1 0.862741 0.497138 0.287688
196 1 0.775677 0.389072 0.939424
197 1 0.890028 0.475804 0.100622
198 1 0.115309 0.45901 0.106382
199 1 0.155085 0.337748 0.0147798
200 1 0.838595 0.695096 0.746328
201 1 0.203909 0.617559 0.123855
202 1 0.102622 0.80807 0.0846084
203 1 0.939714 0.66564 0.877023
204 1 0.970793 0.697737 0.804269
205 1 0.223912 0.585376 0.84226
206 1 0.129995 0.848199 0.894055
207 1 0.0694015 0.652167 0.738465
208 1 0.0900516 0.456489 0.883044
209 1 0.203341 0.317773 0.287645
210 1 0.189222 0.72385 0.923914
211 1 0.343209 0.365228 0.174074
212 1 0.179394 0.846199 0.0623361
213 1 0.0227441 0.223981 0.0559853
214 1 0.301447 0.571629 0.977485
215 1 0.390205 0.448676 0.839602
216 1 0.280233 0.450689 0.936523
217 1 0.311232 0.461409 0.116465
218 1 0.487701 0.57342 0.0848396
219 1 0.236941 0.624216 0.312867
220 1 0.198499 0.644262 0.27728
221 1 0.608534 0.460397 0.0259463
222 1 0.676656 0.414299 0.170477
223 1 0.734373 0.422284 0.194081
224 1 0.534221 0.455968 0.0804887
225 1 0.430326 0.675672 0.899112
226 1 0.901179 0.359292 0.0397922
227 1 0.410001 0.481252 0.0626356
228 1 0.497145 0.585512 0.992413
229 1 0.109184 0.691023 0.0236054
230 1 0.945481 0.501477 0.894887
231 1 0.829734 0.555964 0.194907
232 1 0.641751 0.48619 0.1814
233 1 0.0166911 0.533567 0.109977
234 1 0.90867 0.506876 0.940133
235 1 0.021821 0.425643 0.0408338
236 1 0.890451 0.575253 0.107593
237 1 0.905701 0.309956 0.221196
238 1 0.88925 0.529704 0.0593056
239 1 0.950346 0.351838 0.154307
240 1 0.881333 0.407056 0.139492
241 1 0.721521 0.773444 0.0949826
242 1 0.13016 0.762403 0.735383
243 1 0.0768562 0.651096 0.22988
244 1 0.0923261 0.797533 0.00820912
245 1 0.127086 0.833869 0.960738
246 1 0.299684 0.634405 0.991866
247 1 0.989727 0.503853 0.943317
248 1 0.0285976 0.521612 0.0467044
249 1 0.25002 0.814269 0.135425
250 1 0.292428 0.78794 0.944652
251 1 0.239941 0.759411 0.928312
252 1 0.539493 0.770276 0.788844
253 1 0.345938 0.595673 0.0521168
254 1 0.376343 0.570205 0.101139
255 1 0.500201 0.47663 0.142765
256 1 0.462003 0.635892 0.0267272
257 1 0.268598 0.489181 0.283106
258 1 0.299133 0.777018 0.694061
259 1 0.280265 0.48582 0.0304805
260 1 0.346714 0.563049 0.16372
261 1 0.53873 0.566634 0.817609
262 1 0.705701 0.594279 0.200403
263 1 0.561058 0.463503 0.193886
264 1 0.417895 0.675127 0.102026
265 1 0.482471 0.505829 0.0860157
266 1 0.865484 0.696819 0.0331162
267 1 0.65626 0.569879 0.116934
268 1 0.745299 0.489457 0.230664
269 1 0.876814 0.455163 0.21635
270 1 0.94406 0.440872 0.233322
271 1 0.758731 0.456905 0.309315
272 1 0.915555 0.552786 0.895328
273 1 0.0195916 0.558273 0.937939
274 1 0.78378 0.88476 0.929961
275 1 0.701483 0.584163 0.067165
276 1 0.599821 0.524921 0.0368097
277 1 0.794296 0.574847 0.0295384
278 1 0.744111 0.69445 0.821421
279 1 0.587973 0.653909 0.03971
280 1 0.706832 0.595414 0.963557
281 1 0.945118 0.797856 0.0233102
282 1 0.0945957 0.105232 0.0411064
283 1 0.973247 0.802733 0.0879068
284 1 0.984141 0.948244 0.707124
285 1 0.941702 0.804455 0.168951
286 1 0.255274 0.751012 0.051832
287 1 0.28042 0.779523 0.879336
288 1 0.143642 0.619499 0.918628
289 1 0.400807 0.953189 0.959453
290 1 0.429225 0.949621 0.706563
291 1 0.341967 0.952398 0.982125
292 1 0.445444 0.775305 0.0491201
293 1 0.368804 0.633344 0.173924
294 1 0.484255 0.68279 0.717478
295 1 0.29734 0.784527 0.108577
296 1 0.350793 0.745849 0.098594
297 1 0.668687 0.665161 0.0977583
298 1 0.483848 0.701326 0.936591
299 1 0.408749 0.583301 0.753173
300 1 0.219849 0.0622899 0.941052
301 1 0.378088 0.771107 0.026688
302 1 0.610292 0.780143 0.056599
303 1 0.756553 0.640301 0.18871
304 1 0.496932 0.887551 0.983823
305 1 0.443746 0.437641 0.997319
306 1 0.533592 0.578674 0.660832
307 1 0.724657 0.868002 0.0246528
308 1 0.478241 0.638114 0.946901
309 1 0.801172 0.494585 0.974747
310 1 0.703083 0.939709 0.0723747
311 1 0.0561856 0.527838 0.268147
312 1 0.478678 0.672461 0.0841824
313 1 0.688015 0.421645 0.0118684
314 1 0.907633 0.711956 0.983406
315 1 0.727195 0.866311 0.137392
316 1 0.704102 0.672506 0.249631
317 1 0.816303 0.661129 0.00395698
318 1 0.896305 0.76213 0.940709
319 1 0.0671997 0.49518 0.105105
320 1 0.764987 0.685242 0.0131713
321 1 0.0877637 0.975747 0.794042
322 1 0.726866 0.0220242 0.907621
323 1 0.143354 0.715127 0.075838
324 1 0.0576299 0.857913 0.0109207
325 1 0.104086 0.673994 0.890748
326 1 0.89446 0.708996 0.869634
327 1 0.981319 0.753305 0.0536865
328 1 0.23784 0.845584 0.0827882
329 1 0.090396 0.883805 0.955772
330 1 0.480054 0.94842 0.0215802
331 1 0.408722 0.735659 0.930529
332 1 0.121013 0.879392 0.256868
333 1 0.281328 0.0347876 0.929889
334 1 0.349763 0.727248 0.886658
335 1 0.526945 0.79702 0.129184
336 1 0.147133 0.770009 0.11595
337 1 0.282343 0.845741 0.913944
338 1 0.3297 0.896103 0.0155912
339 1 0.48835 0.745389 0.540726
340 1 0.269109 0.995543 0.0360264
341 1 0.67151 0.710713 0.910556
342 1 0.498654 0.918831 0.189688
343 1 0.536728 0.925913 0.141684
344 1 0.469338 0.822138 0.0199548
345 1 0.56985 0.420023 0.0113798
346 1 0.510067 0.03541 0.941563
347 1 0.428884 0.36123 0.239735
348 1 0.612703 0.84237 0.194098
349 1 0.437305 0.814538 0.106028
350 1 0.592374 0.908961 0.929974
351 1 0.774648 0.593395 0.085597
352 1 0.800117 0.90911 0.155542
353 1 0.750315 0.918328 0.879331
354 1 0.775309 0.745779 0.969636
355 1 0.586201 0.813232 0.116127
356 1 0.647269 0.797409 0.155935
357 1 0.645166 0.7918 0.976139
358 1 0.0192941 0.869528 0.945109
359 1 0.908111 0.783199 0.125581
360 1 0.880323 0.993054 0.0527432
361 1 0.350391 0.834966 0.0389766
362 1 0.250722 0.752086 0.770238
363 1 0.990956 0.914512 0.153314
364 1 0.277757 0.938302 0.87561
365 1 0.907982 0.0122189 0.934145
366 1 0.21786 0.999676 0.927463
367 1 0.0983627 0.031368 0.21728
368 1 0.258501 0.998906 0.337957
369 1 0.390992 0.15409 0.0967776
370 1 0.246217 0.383694 0.0392949
371 1 0.35115 0.177355 0.0490917
372 1 0.998215 0.856668 0.117306
373 1 0.41689 0.163918 0.828396
374 1 0.0835121 0.885055 0.85114
375 1 0.548161 0.577726 0.0881028
376 1 0.297058 0.85804 0.0975727
377 1 0.315294 0.798105 0.99855
378 1 0.427241 0.977114 0.104912
379 1 0.375993 0.062837 0.27168
380 1 0.408033 0.835003 0.0386725
381 1 0.473628 0.951785 0.146233
382 1 0.684486 0.158561 0.270334
383 1 0.702617 0.136476 0.163617
384 1 0.486481 0.968262 0.339962
385 1 0.671803 0.0774459 0.193118
386 1 0.601186 0.0905796 0.0839921
387 1 0.531121 0.913263 0.922247
388 1 0.494934 0.046967 -0.000431023
389 1 0.670167 0.125947 0.784315
390 1 0.000901307 0.988366 0.909119
391 1 0.568381 0.897436 0.210042
392 1 0.716719 0.874507 0.228033
393 1 0.813446 0.946141 0.621692
394 1 0.943544 0.960239 0.909503
395 1 0.504628 0.539905 0.0339203
396 1 0.801939 0.155843 0.89501
397 1 0.20355 0.201267 0.085533
398 1 0.15632 0.788317 0.901308
399 1 0.213992 0.263763 0.0469516
400 1 0.811999 0.0341924 0.0111651
401 1 0.866779 0.168234 0.0079163
402 1 0.343931 0.19811 0.153909
403 1 0.123182 0.986658 0.117608
404 1 0.780347 0.000650785 0.0682579
405 1 0.222091 0.235378 0.220101
406 1 0.30801 0.229756 0.0595151
407 1 0.25231 0.0379712 0.158337
408 1 0.609776 0.145918 0.27546
409 1 0.0615814 0.113403 0.0903709
410 1 0.196119 0.962696 0.190004
411 1 0.158466 0.015521 0.223208
412 1 0.455075 0.966888 0.213143
413 1 0.159563 0.976922 0.0748447
414 1 0.40001 0.92049 0.134325
415 1 0.447946 0.897091 0.0510497
416 1 0.427495 0.077651 0.196427
417 1 0.526006 0.802487 0.986295
418 1 0.467211 0.116276 0.330302
419 1 0.316712 0.12436 0.346614
420 1 0.318738 0.0511042 0.10326
421 1 0.337647 0.954198 0.15987
422 1 0.640455 0.798206 0.29604
423 1 0.812341 0.711526 0.135671
424 1 0.431319 0.0191308 0.383836
425 1 0.485507 0.0182918 0.411317
426 1 0.537612 0.817759 0.271768
427 1 0.693723 0.780601 0.0343108
428 1 0.470192 0.00856816 0.827625
429 1 0.726052 0.27181 0.0829822
430 1 0.863484 0.0438159 0.961383
431 1 0.697167 0.881148 0.0826216
432 1 0.572036 0.172741 0.157788
433 1 0.775173 0.922894 0.0381289
434 1 0.98786 0.960748 0.26757
435 1 0.723806 0.080291 0.137445
436 1 0.806924 0.992441 0.30193
437 1 0.877526 0.984653 0.992426
438 1 0.524432 0.106518 0.878131
439 1 0.846231 -0.00064505 0.882625
440 1 0.655409 0.971228 0.145166
441 1 0.962962 0.0162678 0.969766
442 1 0.109047 0.172989 0.0309238
443 1 0.0055644 0.113021 0.142953
444 1 0.0897363 0.0934214 0.214348
445 1 0.203715 0.0341847 0.883288
446 1 0.976519 0.195127 0.0982698
447 1 0.866789 0.0895453 0.227665
448 1 0.351644 0.997998 0.203393
449 1 0.162299 0.342618 0.402932
450 1 0.0898814 0.143982 0.242303
451 1 0.413145 0.998889 0.0493581
452 1 0.155672 0.0160124 0.36492
453 1 0.303964 0.19161 0.911814
454 1 0.436426 0.37663 0.996282
455 1 0.498038 0.86945 0.340121
456 1 0.302317 0.419727 0.991778
457 1 0.311606 0.12395 0.117675
458 1 0.533489 0.0954193 0.195054
459 1 0.75444 0.141228 0.229689
460 1 0.351136 0.168752 0.864961
461 1 0.587586 0.777981 0.256926
462 1 0.18747 0.0745181 0.240719
463 1 0.447564 0.792574 0.406401
464 1 0.792926 0.0893668 0.402264
465 1 0.52264 0.046375 0.142334
466 1 0.672076 0.0591985 0.885618
467 1 0.520844 0.0916752 0.0986839
468 1 0.729965 0.321087 0.313694
469 1 0.826028 0.311932 0.965221
470 1 0.576073 0.957605 0.22314
471 1 0.831738 0.0444128 0.092905
472 1 0.673374 0.116352 0.920133
473 1 0.832031 0.136263 0.339422
474 1 0.114316 0.312676 0.762556
475 1 0.911914 0.278074 0.773334
476 1 0.800092 0.149893 0.106961
477 1 0.7308 0.827576 0.064605
478 1 0.928837 0.292531 0.0625925
479 1 0.851362 0.0317143 0.160134
480 1 0.763007 0.975405 0.161727
481 1 0.0813784 0.278 0.903583
482 1 0.104432 0.333591 0.09365
483 1 0.191868 0.185316 0.196434
484 1 0.028879 0.222389 0.162046
485 1 0.179323 0.144211 0.0980047
486 1 0.127141 0.46198 0.169908
487 1 0.430214 0.537134 0.0832053
488 1 0.942584 0.134867 0.984887
489 1 0.987676 0.18622 0.959213
490 1 0.184308 0.392123 0.271827
491 1 0.407771 0.207958 0.0702338
492 1 0.224443 0.314388 0.0091925
493 1 0.180908 0.251003 0.830144
494 1 0.292095 0.988081 0.103524
495 1 0.477131 0.173732 0.38225
496 1 0.451642 0.447373 0.186192
497 1 0.381194 0.918534 0.736469
498 1 0.256449 0.0713461 0.220501
499 1 0.250113 0.181768 0.213303
500 1 0.332141 0.0607259 0.839134
501 1 0.607426 0.152346 0.385535
502 1 0.458772 0.154489 0.189737
503 1 0.74809 0.392095 0.31165
504 1 0.470266 0.387147 0.183918
505 1 0.479213 0.0595682 0.878073
506 1 0.779698 0.375854 0.212687
507 1 0.526737 0.00994211 0.241675
508 1 0.616731 0.123835 0.964941
509 1 0.720714 0.175619 0.00254949
510 1 0.771878 0.878265 0.0908745
511 1 0.612516 0.0795097 0.290928
512 1 0.773496 0.37696 0.524048
513 1 0.639625 0.332909 0.400014
514 1 0.983652 0.474644 0.0333697
515 1 0.872252 0.358605 0.0941786
516 1 0.806589 0.212344 0.00844339
517 1 0.130506 0.182941 0.0854652
518 1 0.824825 0.976063 0.161527
519 1 0.799739 0.192151 0.220185
520 1 0.939389 0.268209 0.117999
521 1 0.360065 0.283339 0.947187
522 1 0.191263 0.346805 0.0599988
523 1 0.836136 0.0923543 0.15837
524 1 0.0629176 0.366809 0.119573
525 1 0.0138975 0.270904 0.944347
526 1 0.384963 0.345397 0.996933
527 1 0.0586969 0.198473 0.224664
528 1 0.205382 0.268233 0.88495
529 1 0.395315 0.235598 0.131122
530 1 0.26673 0.271146 0.083002
531 1 0.308319 0.535444 0.250627
532 1 0.102563 0.415613 0.925241
533 1 0.421099 0.294669 0.872769
534 1 0.162594 0.679049 0.87983
535 1 0.597581 0.484771 0.0891902
536 1 0.420444 0.383326 0.319617
537 1 0.445385 0.355869 0.117356
538 1 0.620573 0.271516 0.085965
539 1 0.434007 0.270661 0.175092
540 1 0.492223 0.360231 0.244539
541 1 0.483762 0.151031 0.993534
542 1 0.697912 0.11761 0.427219
543 1 0.529241 0.113437 0.367868
544 1 0.486814 0.318798 0.720234
545 1 0.495576 0.250454 0.0577016
546 1 0.594037 0.213925 0.983011
547 1 0.516327 0.290876 0.224056
548 1 0.86141 0.465306 0.954549
549 1 0.893739 0.0325937 0.115063
550 1 0.975581 0.256774 0.2191
551 1 0.669364 0.273669 0.904991
552 1 0.734592 0.217631 0.105682
553 1 0.865016 0.233135 0.0496691
554 1 0.925021 0.513226 0.125152
555 1 0.905418 0.39936 0.252206
556 1 0.877246 0.187402 0.35543
557 1 0.095949 0.275298 0.974896
558 1 0.884068 0.31503 0.977762
559 1 0.814221 0.0734424 0.293207
560 1 0.899092 0.183207 0.166205
561 1 0.986994 0.201807 0.274282
562 1 0.84055 0.491642 0.0810435
563 1 0.972845 0.429176 0.0922942
564 1 0.00270949 0.254003 0.101373
565 1 0.252389 0.548033 0.0165672
566 1 0.974247 0.695484 0.0583583
567 1 0.151854 0.299659 0.0719809
568 1 0.0983698 0.592771 0.197102
569 1 0.0957814 0.245419 0.225769
570 1 0.0212669 0.403659 0.151206
571 1 0.259538 0.341816 0.959546
572 1 0.138313 0.569813 0.0153827
573 1 0.2797 0.392462 0.912998
574 1 0.954885 0.557347 0.944141
575 1 0.54038 0.288841 0.939602
576 1 0.240537 0.496953 0.9698
577 1 0.41731 0.389138 0.93614
578 1 0.44307 0.0488653 0.779425
579 1 0.538717 0.490808 0.863018
580 1 0.315987 0.652076 0.0530347
581 1 0.508708 0.295995 0.0161225
582 1 0.518576 0.420689 0.179329
583 1 0.67832 0.499733 0.956067
584 1 0.450791 0.220411 0.0280714
585 1 0.554214 0.47774 0.00823468
586 1 0.773116 0.45407 0.129588
587 1 0.400675 0.331884 0.060238
588 1 0.279935 0.523842 0.148776
589 1 0.569548 0.236534 0.054474
590 1 0.729697 0.406047 0.133898
591 1 0.785142 0.337018 0.151128
592 1 0.635995 0.435808 0.975586
593 1 0.845759 0.226193 0.194653
594 1 0.845576 0.322374 0.235585
595 1 0.61599 0.149356 0.113266
596 1 0.828968 0.158713 0.166805
597 1 0.989141 0.44306 0.981603
598 1 0.790791 0.595139 0.154286
599 1 0.793758 0.194027 0.347655
600 1 0.87943 0.637524 0.261494
601 1 0.0816121 0.417887 0.166547
602 1 0.0695829 0.473976 0.163886
603 1 0.0560762 0.310437 0.13454
604 1 0.102045 0.74857 0.0410812
605 1 0.0449598 0.190045 0.994165
606 1 0.159264 0.600717 0.0756718
607 1 0.0293214 0.486108 0.989587
608 1 0.258223 0.70519 0.0984609
609 1 0.339651 0.358658 0.0528986
610 1 0.254305 0.582533 0.150327
611 1 0.285939 0.735685 0.14846
612 1 0.150888 0.66383 0.977802
613 1 0.158698 0.501934 0.128612
614 1 0.347322 0.565571 0.292892
615 1 0.0853032 0.31688 0.0261676
616 1 0.423598 0.659114 0.191833
617 1 0.498021 0.407102 0.0212124
618 1 0.471989 0.224958 0.952327
619 1 0.347853 0.509021 0.205438
620 1 0.195475 0.459175 0.957089
621 1 0.446761 0.559408 0.0225192
622 1 0.612858 0.532369 0.145625
623 1 0.728517 0.473025 0.993045
624 1 0.360338 0.290046 0.162347
625 1 0.550938 0.56153 0.995528
626 1 0.789445 0.384836 0.110128
627 1 0.633254 0.336053 0.100495
628 1 0.575851 0.341669 0.312863
629 1 0.607445 0.62256 0.103992
630 1 0.676046 0.627804 0.154291
631 1 0.818664 0.52335 0.0211354
632 1 0.739557 0.547836 0.325883
633 1 0.934996 0.527411 0.395877
634 1 0.0486012 0.472453 0.239173
635 1 0.756121 0.52279 0.0299894
636 1 0.880319 0.642938 0.128347
637 1 0.837821 0.455566 0.15581
638 1 0.725263 0.589856 0.126647
639 1 0.186382 0.467666 0.0768167
640 1 0.967624 0.493785 0.0867777
641 1 0.0668805 0.544876 0.136769
642 1 0.0831455 0.715224 0.198995
643 1 0.139042 0.904662 0.985149
644 1 0.303161 0.67719 0.298877
645 1 0.0621074 0.581773 0.0112241
646 1 0.361485 0.626061 0.982721
647 1 0.191693 0.790174 0.26146
648 1 0.0515038 0.693523 0.144966
649 1 0.0767694 0.61273 0.927006
650 1 0.0589425 0.978464 0.0683255
651 1 0.180111 0.595397 0.972511
652 1 0.265066 0.683817 0.025174
653 1 0.117858 0.569608 0.941022
654 1 0.177965 0.437611 0.32527
655 1 0.159509 0.624666 0.327805
656 1 0.433723 0.506227 0.00237449
657 1 0.293607 0.908807 0.934673
658 1 0.459869 0.633184 0.139703
659 1 0.398835 0.550789 0.261957
660 1 0.46608 0.759021 0.966648
661 1 0.460523 0.429775 0.0692326
662 1 0.602407 0.558561 0.0904232
663 1 0.578004 0.787604 0.177166
664 1 0.553245 0.416752 0.128265
665 1 0.571077 0.673122 0.105922
666 1 0.809355 0.733526 0.404241
667 1 0.536307 0.548174 0.302134
668 1 0.872429 0.578027 0.232991
669 1 0.549575 0.638344 0.168998
670 1 0.705762 0.656026 0.0356294
671 1 0.834439 0.369994 0.163657
672 1 0.794316 0.472593 0.262529
673 1 0.82921 0.607267 0.104177
674 1 0.937822 0.574083 0.236576
675 1 0.121095 0.669719 0.830352
676 1 0.914066 0.509156 0.216683
677 1 0.63348 0.583008 0.182736
678 1 0.0218258 0.591762 0.143187
679 1 0.941682 0.625511 0.139793
680 1 1.0019 0.457737 0.202203
681 1 0.331557 0.839683 0.183672
682 1 0.00219658 0.842469 0.0550681
683 1 0.088338 0.618537 0.0547203
684 1 0.83167 0.850906 0.192639
685 1 0.0363054 0.909681 0.0693531
686 1 0.126257 0.678729 0.770535
687 1 0.223401 0.974834 0.0991642
688 1 0.294756 0.810323 0.0552269
689 1 0.343835 0.689407 0.00847339
690 1 0.387699 0.923299 0.0750985
691 1 0.385441 0.905429 0.276436
692 1 0.191247 0.897639 0.220529
693 1 0.360684 0.68845 0.0803548
694 1 0.592721 0.723248 0.0327046
695 1 0.464832 0.647332 0.260699
696 1 0.539651 0.747398 0.157208
697 1 0.602063 0.58947 0.0408758
698 1 0.427435 0.633133 0.816132
699 1 0.429039 0.623966 0.313068
700 1 0.535976 0.806715 0.35274
701 1 0.54796 0.854795 0.00817883
702 1 0.640564 0.677601 0.0350393
703 1 0.581026 0.614242 0.979609
704 1 0.205269 0.869611 0.15113
705 1 0.346233 0.465324 0.00187714
706 1 0.62113 0.674608 0.131355
707 1 0.745636 0.687182 0.368042
708 1 0.900854 0.612238 0.354337
709 1 0.573413 0.589672 0.145103
710 1 0.793137 0.707647 0.0658449
711 1 0.548666 0.515467 0.0716431
712 1 0.848674 0.745032 0.0926177
713 1 0.695037 0.7583 0.973949
714 1 0.0774246 0.764105 0.114956
715 1 0.865728 0.604008 0.171951
716 1 0.856121 0.531728 0.128631
717 1 0.746358 0.544887 0.184581
718 1 0.910758 0.684288 0.0860541
719 1 0.238788 0.770966 0.298386
720 1 0.768551 0.821554 0.205201
721 1 0.103998 0.940524 0.0892116
722 1 0.213669 0.703851 0.0506052
723 1 0.289832 0.796466 0.174276
724 1 0.0562704 0.639599 0.113972
725 1 0.0166427 0.0831656 0.910111
726 1 0.259178 0.226279 0.0231359
727 1 0.0338463 0.738555 0.226052
728 1 0.983548 0.0673577 0.0116713
729 1 0.117826 0.818473 0.143114
730 1 0.228269 0.00676275 0.984122
731 1 0.37544 0.800273 0.0808875
732 1 0.370881 0.90853 0.201292
733 1 0.407893 0.717749 0.193931
734 1 0.457904 0.809098 0.171351
735 1 0.322911 0.635317 0.242431
736 1 0.373899 0.845657 0.978729
737 1 0.491945 0.684687 0.165235
738 1 0.511976 0.992219 0.109885
739 1 0.543114 0.85184 0.0806771
740 1 0.296597 0.85039 0.976574
741 1 0.726017 0.872112 0.376124
742 1 0.733411 0.707463 0.198856
743 1 0.628942 0.886666 0.0554646
744 1 0.470859 0.867345 0.148844
745 1 0.555364 0.072484 0.249417
746 1 0.735226 0.928084 0.996029
747 1 0.507779 0.803292 0.0690574
748 1 0.375422 0.672713 0.232193
749 1 0.734172 0.343007 0.109657
750 1 0.712902 0.794972 0.230016
751 1 0.708726 0.51887 0.0703114
752 1 0.651372 0.726815 0.0782415
753 1 0.780149 0.80791 0.854059
754 1 0.900707 0.0829815 0.927571
755 1 0.717549 0.697241 0.0895252
756 1 0.943366 0.688681 0.139076
757 1 0.0953698 0.941191 0.212529
758 1 0.91267 0.951536 0.0914867
759 1 0.954391 0.904405 0.101907
760 1 0.801289 0.712598 0.792352
761 1 0.137278 0.654628 0.10477
762 1 0.0100148 0.0552176 0.249364
763 1 0.0572776 0.970663 0.012047
764 1 0.0923861 0.0282878 0.019675
765 1 0.118869 0.94688 0.881713
766 1 0.15335 0.395059 0.906984
767 1 0.202763 0.0131914 0.320985
768 1 0.960662 0.980319 0.170941
769 1 0.423452 0.838768 0.285871
770 1 0.883772 0.941189 0.926101
771 1 0.16701 0.13003 0.935133
772 1 0.0379018 0.0315359 0.941707
773 1 0.397816 0.0291934 0.225601
774 1 0.256705 0.102901 0.16552
775 1 0.325386 0.908536 0.434892
776 1 0.145708 0.116061 0.404205
777 1 0.581191 0.0479445 0.0300342
778 1 0.556229 0.854735 0.311092
779 1 0.473781 0.987226 0.062485
780 1 0.433047 0.842874 0.904676
781 1 0.517154 0.155989 0.20936
782 1 0.532296 0.738511 0.290279
783 1 0.240641 0.0672385 0.329113
784 1 0.663613 0.911109 0.0117995
785 1 0.571625 0.557102 0.256304
786 1 0.72407 0.9539 0.127525
787 1 0.808849 0.787374 0.280021
788 1 0.413725 0.107786 0.136297
789 1 0.512571 0.934463 0.377955
790 1 0.510282 0.979551 0.186265
791 1 0.901352 0.838273 0.031851
792 1 0.773167 0.0245873 0.372888
793 1 0.783136 0.759353 0.1657
794 1 0.725832 0.814419 0.165419
795 1 0.222791 0.934229 0.948718
796 1 0.672301 0.0313543 0.147992
797 1 0.877573 0.76469 0.00619481
798 1 0.880593 0.0913311 0.0954119
799 1 0.0490259 0.206861 0.296673
800 1 0.798781 0.903496 0.985501
801 1 0.93047 0.943126 0.022104
802 1 0.183676 0.0756345 0.17732
803 1 0.264673 0.972136 0.163908
804 1 0.939868 0.00484823 0.0907543
805 1 0.89356 0.865422 0.163479
806 1 0.117785 0.125475 0.981753
807 1 0.948786 0.172366 0.496024
808 1 0.330819 0.944555 0.265827
809 1 0.2176 0.961933 0.0284491
810 1 0.180515 0.996401 0.417273
811 1 0.180264 0.944429 0.364354
812 1 -0.000136584 0.135455 0.213005
813 1 0.310549 0.0396359 0.532861
814 1 0.0907447 0.0521928 0.153949
815 1 0.372133 0.12812 0.394347
816 1 0.23407 0.942272 0.241972
817 1 0.203576 0.991143 0.264485
818 1 0.451737 0.900896 0.37124
819 1 0.424572 0.00176471 0.288694
820 1 0.256494 0.132251 0.33464
821 1 0.625326 0.867633 0.111973
822 1 0.463881 0.955262 0.279432
823 1 0.487702 0.8406 0.283725
824 1 0.518454 0.155091 0.321397
825 1 0.562031 0.983398 0.164237
826 1 0.571778 0.739352 0.0977948
827 1 0.852484 0.90689 0.193232
828 1 0.79168 0.0309232 0.14187
829 1 0.862319 0.199055 0.252083
830 1 0.087233 0.859956 0.397308
831 1 0.579411 0.910553 0.0248424
832 1 0.511423 0.135437 0.149866
833 1 0.592839 0.522 0.206158
834 1 0.922144 0.0534788 0.169685
835 1 0.996858 0.955458 0.10299
836 1 0.837892 0.796109 0.146514
837 1 0.021249 0.912341 0.00923726
838 1 0.845005 0.215194 0.125851
839 1 0.924706 0.0697293 0.992756
840 1 0.882783 0.0393916 0.269009
841 1 0.0474384 0.160545 0.177635
842 1 0.967508 0.226905 0.913882
843 1 0.110994 0.00669091 0.325839
844 1 0.106209 0.0886477 0.449721
845 1 0.94481 0.0543168 0.264255
846 1 0.209058 0.322111 0.158453
847 1 0.992739 0.185245 0.330952
848 1 0.9882 0.86812 0.404623
849 1 0.989677 0.173377 0.03316
850 1 0.406349 0.909318 0.00959622
851 1 0.197146 0.974148 0.539029
852 1 0.254065 0.122681 0.271639
853 1 0.259186 0.0726599 0.986821
854 1 0.558228 0.111919 0.301573
855 1 0.43621 0.0439581 0.0260869
856 1 0.39723 0.242817 0.223063
857 1 0.23893 0.253934 0.479445
858 1 0.480185 0.199626 0.312286
859 1 0.569948 0.928716 0.343207
860 1 0.401876 0.191638 0.405747
861 1 0.681606 0.113751 0.988559
862 1 0.655292 0.0290017 0.45205
863 1 0.455857 0.965606 0.395272
864 1 0.63637 0.169527 0.326919
865 1 0.365509 0.138906 0.155009
866 1 0.74485 0.150462 0.106843
867 1 0.64092 0.784458 0.214004
868 1 0.724082 0.297092 0.164212
869 1 0.734471 0.223221 0.19697
870 1 0.622442 0.999201 0.181294
871 1 0.596735 0.215023 0.102983
872 1 0.942861 0.0918707 0.205725
873 1 0.00409696 0.0180191 0.0759993
874 1 0.0102984 0.130852 0.981668
875 1 0.632012 0.905637 0.189239
876 1 0.832313 0.960743 0.0219524
877 1 0.642425 0.200981 0.272291
878 1 0.979477 0.0234669 0.13432
879 1 0.0945618 0.115704 0.1523
880 1 0.763027 0.96981 0.410212
881 1 0.0359523 0.976988 0.428966
882 1 0.781569 0.265617 0.152324
883 1 0.0967835 0.156701 0.300034
884 1 0.0675717 0.24537 0.124311
885 1 0.127318 0.315946 0.184686
886 1 0.762433 0.0909509 0.265066
887 1 0.143896 0.121028 0.221953
888 1 0.112241 0.200041 0.261722
889 1 0.114766 0.261189 0.0286426
890 1 0.880014 0.264551 0.112001
891 1 0.307095 0.3356 0.115436
892 1 0.41869 0.257906 0.981561
893 1 0.167361 0.206213 0.142243
894 1 0.384786 0.475036 0.259161
895 1 0.528979 0.218595 0.346297
896 1 0.172547 0.356483 0.198835
897 1 0.438734 0.0541724 0.331792
898 1 0.490775 0.249719 0.275735
899 1 0.319321 0.923263 0.0984967
900 1 0.48506 0.458984 0.385403