ITEM: TIMESTEP
9300
ITEM: NUMBER OF ATOMS
4000
ITEM: BOX BOUNDS pp pp pp
0.0000000000000000e+00 1.6795961913825074e+01
0.0000000000000000e+00 1.6795961913825074e+01
0.0000000000000000e+00 1.6795961913825074e+01
ITEM: ATOMS id type xs ys zs
1 1 0.995675 0.000342926 0.00264736
2 1 0.0507059 0.0505069 0.999321
3 1 0.047318 0.00201205 0.0516051
4 1 0.997202 0.0475094 0.0499089
5 1 0.0988488 -0.00087065 0.000941442
6 1 0.144208 0.0509161 0.997173
7 1 0.150206 0.00128035 0.0503824
8 1 0.0970878 0.0539218 0.0504015
9 1 0.202605 1.05629e-05 1.00025
10 1 0.251926 0.0491291 0.0022462
11 1 0.252869 0.00197269 0.0496828
12 1 0.202403 0.048342 0.0499391
13 1 0.300223 1.00063 0.00298392
14 1 0.348962 0.0534546 0.00062776
15 1 0.349623 9.88237e-05 0.0506864
16 1 0.297646 0.0519609 0.0501998
17 1 0.400681 0.999116 0.999729
18 1 0.451086 0.0474595 0.00259221
19 1 0.448447 0.997105 0.0495644
20 1 0.402792 0.0495726 0.0506759
21 1 0.499462 0.999085 0.997837
22 1 0.548062 0.0518036 0.998873
23 1 0.546801 0.996874 0.0525721
24 1 0.500674 0.0477089 0.0492017
25 1 0.59931 -0.00127454 0.999241
26 1 0.650018 0.0503118 0.00393422
27 1 0.650443 0.99803 0.0548613
28 1 0.598845 0.0494305 0.0484237
29 1 0.698019 0.99854 0.00147743
30 1 0.749575 0.050405 0.00102266
31 1 0.748731 1.00071 0.0502198
32 1 0.697302 0.0476824 0.0508289
33 1 0.800541 0.000273064 0.00145489
34 1 0.846405 0.0533667 -0.00105416
35 1 0.852242 0.00309273 0.0489455
36 1 0.800092 0.0546675 0.0516537
37 1 0.896999 0.00208242 0.000500609
38 1 0.946009 0.0480497 0.996417
39 1 0.9453 -6.14937e-06 0.0497021
40 1 0.899189 0.0526815 0.0491038
41 1 0.994953 0.0968705 0.00176551
42 1 0.0488509 0.154757 0.998158
43 1 0.046574 0.10301 0.0505673
44 1 0.998269 0.152179 0.0509391
45 1 0.0948872 0.102199 0.999207
46 1 0.149048 0.148932 0.00153662
47 1 0.144514 0.101666 0.0499386
48 1 0.0991871 0.151732 0.0521578
49 1 0.198118 0.102288 0.00241139
50 1 0.250502 0.151239 1.0001
51 1 0.250206 0.102582 0.0500197
52 1 0.201258 0.15204 0.0474346
53 1 0.302818 0.100652 -0.000343628
54 1 0.348735 0.151821 -5.32888e-06
55 1 0.345511 0.101288 0.0537767
56 1 0.297946 0.149079 0.0502142
57 1 0.40098 0.0978232 0.999732
58 1 0.454584 0.150973 1.00165
59 1 0.449772 0.10029 0.0540277
60 1 0.400908 0.149692 0.0484525
61 1 0.501421 0.0978318 0.00494535
62 1 0.545204 0.151685 0.00186844
63 1 0.551556 0.10019 0.0521212
64 1 0.497953 0.150739 0.0544134
65 1 0.601094 0.0996637 -0.000672391
66 1 0.656336 0.152805 0.99879
67 1 0.647532 0.0961969 0.0552676
68 1 0.601343 0.154256 0.0449652
69 1 0.704116 0.100261 1.00071
70 1 0.752272 0.149783 0.00288836
71 1 0.748885 0.0997171 0.054525
72 1 0.699151 0.148859 0.0511178
73 1 0.800091 0.103771 -0.00103355
74 1 0.848834 0.150843 0.00289889
75 1 0.850499 0.101288 0.0540706
76 1 0.801761 0.147126 0.0523811
77 1 0.897152 0.099741 0.996892
78 1 0.946683 0.146388 0.999472
79 1 0.948057 0.0986733 0.0526341
80 1 0.898794 0.151419 0.0501236
81 1 0.996265 0.200664 0.00300465
82 1 0.0466681 0.248751 0.999831
83 1 0.0505339 0.200147 0.0508126
84 1 -0.000282421 0.249032 0.0511546
85 1 0.0985494 0.200516 0.999966
86 1 0.148011 0.249542 0.000454264
87 1 0.148777 0.199486 0.0511993
88 1 0.0975702 0.251106 0.0484658
89 1 0.200051 0.201543 1.0002
90 1 0.24836 0.249076 0.998474
91 1 0.250373 0.20292 0.0524602
92 1 0.199894 0.248331 0.0502743
93 1 0.303334 0.19864 -0.000677077
94 1 0.348811 0.253752 1.00098
95 1 0.352299 0.201831 0.0496368
96 1 0.301054 0.248653 0.0502914
97 1 0.401145 0.202794 0.000879109
98 1 0.45144 0.249499 -0.00151944
99 1 0.45136 0.201373 0.0520189
100 1 0.402613 0.251315 0.0517177
101 1 0.499496 0.203384 -0.000327192
102 1 0.551101 0.250055 -6.02177e-05
103 1 0.548623 0.204994 0.0509762
104 1 0.501085 0.252722 0.0503274
105 1 0.598825 0.204044 0.0016744
106 1 0.647111 0.253761 0.996352
107 1 0.649537 0.203705 0.0477501
108 1 0.598694 0.252108 0.0481688
109 1 0.703478 0.200418 0.00182641
110 1 0.75045 0.247183 0.00206009
111 1 0.749785 0.195887 0.0533909
112 1 0.699834 0.250039 0.0511326
113 1 0.798831 0.198842 -4.41686e-05
114 1 0.849148 0.247303 0.997638
115 1 0.844994 0.200799 0.049308
116 1 0.800917 0.251349 0.0515655
117 1 0.90124 0.201685 1.00061
118 1 0.94873 0.249878 0.997095
119 1 0.946483 0.199806 0.0498402
120 1 0.89958 0.246941 0.0489861
121 1 0.998009 0.297964 0.997907
122 1 0.0500969 0.351117 -0.000876968
123 1 0.0519653 0.300452 0.0505514
124 1 0.00109606 0.351744 0.0462232
125 1 0.10145 0.301281 0.999804
126 1 0.149362 0.349932 1.00077
127 1 0.148958 0.297905 0.0488783
128 1 0.0995611 0.349451 0.0486003
129 1 0.198634 0.299124 0.996975
130 1 0.246688 0.349186 -0.000557521
131 1 0.250399 0.302083 0.0503399
132 1 0.198734 0.348477 0.0510375
133 1 0.299422 0.3026 0.00184286
134 1 0.350487 0.34922 0.997572
135 1 0.350899 0.300951 0.0507839
136 1 0.298693 0.353521 0.0510881
137 1 0.40041 0.300035 0.00122844
138 1 0.450506 0.352008 0.996686
139 1 0.449051 0.303013 0.0504465
140 1 0.39822 0.350515 0.0524802
141 1 0.499378 0.2978 0.00118951
142 1 0.553414 0.355871 0.998958
143 1 0.551485 0.301789 0.0495477
144 1 0.500432 0.350064 0.0484146
145 1 0.601498 0.30316 0.995712
146 1 0.652103 0.352486 0.000233362
147 1 0.649935 0.300448 0.0503172
148 1 0.602652 0.348776 0.0479887
149 1 0.698195 0.299624 0.996382
150 1 0.749773 0.35102 -9.44654e-05
151 1 0.749413 0.299928 0.048418
152 1 0.700547 0.346086 0.0511569
153 1 0.801393 0.298912 -0.000415959
154 1 0.852521 0.347886 1.00067
155 1 0.84797 0.297915 0.0498349
156 1 0.797111 0.350273 0.049623
157 1 0.900914 0.300321 0.0011073
158 1 0.949352 0.347474 -0.000849862
159 1 0.951999 0.298358 0.048459
160 1 0.900976 0.350662 0.0506253
161 1 0.0022689 0.399751 -0.000938674
162 1 0.0504125 0.453022 0.994681
163 1 0.053698 0.399452 0.0497327
164 1 0.00159537 0.451564 0.048154
165 1 0.0996347 0.39834 0.998875
166 1 0.150319 0.449167 0.997183
167 1 0.146815 0.397741 0.0471046
168 1 0.102147 0.449588 0.0485493
169 1 0.199917 0.402903 0.0013804
170 1 0.249631 0.448969 0.999175
171 1 0.250055 0.400879 0.0520994
172 1 0.198413 0.451509 0.0518711
173 1 0.298892 0.397312 0.997858
174 1 0.350104 0.448871 0.0011875
175 1 0.345019 0.404805 0.0501949
176 1 0.297399 0.448488 0.0498741
177 1 0.399237 0.398101 1.00014
178 1 0.448127 0.447995 0.995706
179 1 0.451447 0.398681 0.0502167
180 1 0.401439 0.449284 0.051411
181 1 0.499816 0.40218 0.99598
182 1 0.549107 0.44802 0.997699
183 1 0.549533 0.401136 0.0479813
184 1 0.497926 0.448611 0.0485754
185 1 0.602895 0.402269 0.99896
186 1 0.64932 0.450149 0.00275067
187 1 0.650171 0.400991 0.0486664
188 1 0.600105 0.446654 0.0501853
189 1 0.698847 0.400804 -0.00205499
190 1 0.749166 0.451986 0.00110628
191 1 0.749591 0.398382 0.049255
192 1 0.701064 0.449362 0.0488822
193 1 0.800637 0.398873 0.998374
194 1 0.848814 0.449366 0.999497
195 1 0.849621 0.396566 0.0470994
196 1 0.798514 0.44818 0.0478423
197 1 0.899084 0.400279 0.997685
198 1 0.953542 0.449273 0.997864
199 1 0.949321 0.399951 0.0431249
200 1 0.898989 0.448605 0.0472256
201 1 1.00058 0.498354 0.99776
202 1 0.0484523 0.550817 0.996804
203 1 0.050915 0.500566 0.0455852
204 1 0.998677 0.547272 0.0465236
205 1 0.100537 0.503363 0.995984
206 1 0.152385 0.549233 0.999562
207 1 0.14903 0.499389 0.0506639
208 1 0.0983255 0.547053 0.0493706
209 1 0.202158 0.500536 0.997106
210 1 0.250039 0.549243 0.997691
211 1 0.250434 0.498054 0.047779
212 1 0.20026 0.550993 0.050735
213 1 0.299163 0.499394 0.998442
214 1 0.350852 0.552168 0.996021
215 1 0.350112 0.498725 0.0515474
216 1 0.300293 0.551466 0.0473834
217 1 0.39636 0.501362 0.000728545
218 1 0.448668 0.550482 0.999463
219 1 0.44823 0.496674 0.0480819
220 1 0.399988 0.551086 0.0472796
221 1 0.496609 0.49815 0.996691
222 1 0.554263 0.551636 1.00075
223 1 0.549175 0.496285 0.0501749
224 1 0.498839 0.545055 0.0450147
225 1 0.602921 0.49652 0.000602919
226 1 0.647955 0.546863 0.00142319
227 1 0.651496 0.4992 0.0514767
228 1 0.598866 0.547574 0.0499483
229 1 0.699546 0.498687 -0.00131338
230 1 0.748507 0.547391 0.996939
231 1 0.7498 0.501319 0.0504052
232 1 0.700361 0.550796 0.050115
233 1 0.800196 0.498222 0.998776
234 1 0.849114 0.548311 0.00239447
235 1 0.847447 0.497995 0.0476868
236 1 0.798159 0.54665 0.051376
237 1 0.898608 0.499676 0.998747
238 1 0.945395 0.550031 0.999135
239 1 0.947358 0.497902 0.0502987
240 1 0.89659 0.548113 0.0498481
241 1 0.999689 0.600302 0.99604
242 1 0.0522584 0.646533 0.996657
243 1 0.0462267 0.597866 0.045924
244 1 0.00362541 0.649691 0.0435327
245 1 0.0976471 0.597652 0.999506
246 1 0.151749 0.652473 -0.000807449
247 1 0.150351 0.605831 0.0493719
248 1 0.100936 0.650306 0.0495529
249 1 0.200896 0.600746 0.999869
250 1 0.250938 0.649029 0.00211099
251 1 0.246582 0.599199 0.0494305
252 1 0.20376 0.647879 0.051339
253 1 0.298816 0.601874 -0.000212609
254 1 0.35016 0.648107 0.000407975
255 1 0.350332 0.597918 0.0480831
256 1 0.29968 0.653118 0.0510909
257 1 0.400132 0.599946 1.0002
258 1 0.449102 0.649608 0.0026104
259 1 0.453681 0.599443 0.0485426
260 1 0.401556 0.648247 0.0501477
261 1 0.501277 0.597553 0.99577
262 1 0.552674 0.651409 1.00016
263 1 0.554923 0.600383 0.0546162
264 1 0.501673 0.650922 0.0529901
265 1 0.602388 0.597728 1.00214
266 1 0.651852 0.648416 0.00136007
267 1 0.650105 0.597138 0.049774
268 1 0.603008 0.650561 0.0488026
269 1 0.699643 0.600984 0.000165142
270 1 0.756203 0.646436 0.00114316
271 1 0.752043 0.597647 0.0464184
272 1 0.700786 0.649697 0.0515304
273 1 0.801074 0.595555 0.999515
274 1 0.848257 0.646396 0.0002236
275 1 0.846638 0.599882 0.0500965
276 1 0.801348 0.646856 0.0512776
277 1 0.897021 0.600804 -1.52588e-05
278 1 0.949795 0.647935 0.999408
279 1 0.946315 0.597053 0.0501781
280 1 0.899509 0.648654 0.0497304
281 1 0.997527 0.698157 0.997171
282 1 0.0509995 0.749065 0.999285
283 1 0.0503415 0.696784 0.0465506
284 1 0.999865 0.7478 0.0490833
285 1 0.101541 0.701929 1.00033
286 1 0.147467 0.749846 0.996457
287 1 0.153 0.699227 0.0467287
288 1 0.102501 0.747168 0.0483298
289 1 0.201888 0.698629 0.998923
290 1 0.250309 0.750258 0.998099
291 1 0.249806 0.698855 0.0487845
292 1 0.19892 0.750899 0.0489507
293 1 0.301168 0.700424 0.00113641
294 1 0.351083 0.748263 0.00291072
295 1 0.350459 0.700065 0.0503725
296 1 0.297872 0.749339 0.0493828
297 1 0.40018 0.697357 0.000346657
298 1 0.451357 0.748244 0.998699
299 1 0.44647 0.699468 0.0528993
300 1 0.400305 0.749995 0.0507985
301 1 0.502356 0.699144 -0.000414421
302 1 0.55083 0.75127 0.999437
303 1 0.550739 0.699907 0.0488911
304 1 0.500409 0.749494 0.0487908
305 1 0.605129 0.699255 0.000343673
306 1 0.655347 0.749019 0.00300687
307 1 0.652148 0.700219 0.0545115
308 1 0.600671 0.749767 0.046944
309 1 0.70605 0.697768 1.00006
310 1 0.753157 0.749393 0.997809
311 1 0.749359 0.698205 0.0503766
312 1 0.69973 0.745347 0.0522164
313 1 0.800484 0.698568 0.999454
314 1 0.847572 0.751555 1.00004
315 1 0.849314 0.699748 0.0483963
316 1 0.800486 0.752492 0.0504271
317 1 0.90087 0.698654 0.998167
318 1 0.950089 0.74996 0.998797
319 1 0.949661 0.698727 0.0455222
320 1 0.902266 0.750948 0.0453617
321 1 0.000996113 0.799893 0.00198133
322 1 0.0485139 0.852373 0.998962
323 1 0.0501377 0.79987 0.0475095
324 1 0.0010434 0.850332 0.0491892
325 1 0.0985508 0.799776 -0.000771953
326 1 0.153833 0.852655 0.00189818
327 1 0.149977 0.79889 0.0445342
328 1 0.0962418 0.850201 0.0490629
329 1 0.198837 0.798097 0.998657
330 1 0.247156 0.847312 0.995808
331 1 0.25178 0.799453 0.0474737
332 1 0.203154 0.848331 0.0501439
333 1 0.298129 0.800751 0.998023
334 1 0.348542 0.850272 0.996817
335 1 0.345477 0.801693 0.0474267
336 1 0.301181 0.853346 0.0496784
337 1 0.398393 0.800229 0.00312461
338 1 0.449965 0.85081 0.0014234
339 1 0.451163 0.798954 0.0449763
340 1 0.398811 0.848053 0.0509053
341 1 0.501388 0.800659 0.999125
342 1 0.553895 0.848194 0.996484
343 1 0.550472 0.800335 0.0467925
344 1 0.499241 0.850379 0.0498421
345 1 0.602627 0.798691 0.997779
346 1 0.648389 0.845329 0.00394344
347 1 0.649983 0.795811 0.0525806
348 1 0.601068 0.848948 0.0480071
349 1 0.699516 0.801474 0.00328525
350 1 0.750905 0.849104 0.00181032
351 1 0.748766 0.798207 0.0499632
352 1 0.698175 0.85086 0.0487463
353 1 0.799677 0.801456 0.999352
354 1 0.849706 0.849859 -0.00266386
355 1 0.852988 0.797452 0.0499411
356 1 0.801815 0.851117 0.0499374
357 1 0.901161 0.799283 0.998578
358 1 0.94815 0.850915 0.00114361
359 1 0.953023 0.799019 0.0492809
360 1 0.897968 0.85104 0.0531746
361 1 0.999558 0.902111 0.998598
362 1 0.0498187 0.949553 0.00176311
363 1 0.048176 0.898902 0.0503425
364 1 0.000536094 0.951616 0.0518356
365 1 0.0976865 0.899507 0.00186188
366 1 0.153082 0.948599 -0.000921254
367 1 0.151713 0.902323 0.0528487
368 1 0.10299 0.950373 0.0509966
369 1 0.202547 0.90278 0.002443
370 1 0.251351 0.951172 0.00263022
371 1 0.251575 0.900566 0.0485923
372 1 0.202306 0.955202 0.0492547
373 1 0.297669 0.895611 0.997401
374 1 0.345941 0.949383 0.00286693
375 1 0.35225 0.90062 0.052492
376 1 0.299274 0.950062 0.0515261
377 1 0.4012 0.899597 0.00240347
378 1 0.450826 0.946977 0.00112262
379 1 0.44978 0.898579 0.0511154
380 1 0.398533 0.950598 0.0487204
381 1 0.500219 0.89445 0.00278569
382 1 0.550681 0.944841 0.00188713
383 1 0.550935 0.898046 0.0494845
384 1 0.500306 0.945612 0.0486712
385 1 0.600258 0.897631 0.00281691
386 1 0.647074 0.946413 0.999433
387 1 0.650307 0.899748 0.0499404
388 1 0.599151 0.950027 0.0496022
389 1 0.701576 0.89822 0.00246061
390 1 0.749482 0.949782 0.00469905
391 1 0.749361 0.898579 0.0508001
392 1 0.696911 0.946557 0.050373
393 1 0.800561 0.900022 0.00358236
394 1 0.847913 0.948241 0.997431
395 1 0.84948 0.901791 0.0512271
396 1 0.801418 0.951042 0.0531593
397 1 0.896792 0.901945 -0.000480049
398 1 0.950401 0.950492 0.000899431
399 1 0.952446 0.904969 0.0509567
400 1 0.896713 0.949099 0.0503445
401 1 1.00011 0.999555 0.102305
402 1 0.0478996 0.05339 0.099585
403 1 0.0489695 1.00028 0.149085
404 1 0.998039 0.0530703 0.150636
405 1 0.0961918 0.000617481 0.100863
406 1 0.151574 0.0512522 0.102223
407 1 0.154878 0.00227823 0.148056
408 1 0.100537 0.0547387 0.148118
409 1 0.201192 0.00396826 0.0998724
410 1 0.251673 0.0507509 0.100935
411 1 0.252522 0.00151526 0.146517
412 1 0.20382 0.053843 0.149216
413 1 0.302239 0.00145759 0.0976004
414 1 0.353318 0.0513665 0.0980383
415 1 0.350603 0.0016993 0.148959
416 1 0.301123 0.0507066 0.149743
417 1 0.397058 1.00014 0.101613
418 1 0.451603 0.049564 0.0996061
419 1 0.448828 0.996189 0.150264
420 1 0.399939 0.0515962 0.153719
421 1 0.497319 0.99676 0.0997656
422 1 0.551345 0.0498387 0.101169
423 1 0.552644 0.997649 0.151421
424 1 0.502954 0.0464592 0.14921
425 1 0.601451 0.000250979 0.102119
426 1 0.649516 0.0485845 0.104016
427 1 0.652157 0.999674 0.151787
428 1 0.599544 0.0501637 0.151008
429 1 0.700865 0.997219 0.0996177
430 1 0.752259 0.0503386 0.102468
431 1 0.750644 0.996081 0.147811
432 1 0.700753 0.0452138 0.15004
433 1 0.804495 0.00232067 0.1007
434 1 0.853064 0.0492516 0.102467
435 1 0.851869 0.997603 0.151034
436 1 0.803164 0.0503338 0.151134
437 1 0.902076 0.998088 0.102496
438 1 0.952075 0.0490971 0.103163
439 1 0.949627 0.00182614 0.152181
440 1 0.902309 0.0505003 0.149625
441 1 0.99816 0.100732 0.099806
442 1 0.0457589 0.148877 0.100896
443 1 0.0455312 0.101129 0.149999
444 1 0.998189 0.148484 0.152092
445 1 0.101812 0.105021 0.0998394
446 1 0.151075 0.153412 0.100774
447 1 0.150301 0.10372 0.14694
448 1 0.0989208 0.149341 0.15068
449 1 0.20189 0.100343 0.100537
450 1 0.249907 0.150627 0.0999732
451 1 0.251483 0.101934 0.150794
452 1 0.19875 0.151793 0.150049
453 1 0.299424 0.101902 0.0991852
454 1 0.351027 0.15021 0.0980516
455 1 0.350967 0.101882 0.152155
456 1 0.299285 0.15046 0.147998
457 1 0.399637 0.0992814 0.0987724
458 1 0.449599 0.154995 0.102759
459 1 0.451701 0.0963627 0.149661
460 1 0.402351 0.148106 0.148123
461 1 0.500892 0.0983077 0.101182
462 1 0.552019 0.156992 0.0987369
463 1 0.550503 0.100914 0.150729
464 1 0.502543 0.151292 0.150571
465 1 0.597994 0.0989573 0.102615
466 1 0.647464 0.152473 0.100243
467 1 0.650792 0.102497 0.149537
468 1 0.598696 0.150885 0.152
469 1 0.697736 0.0962323 0.103079
470 1 0.750562 0.14988 0.101209
471 1 0.746853 0.101142 0.152226
472 1 0.69819 0.15243 0.151261
473 1 0.799162 0.0958955 0.101914
474 1 0.849513 0.150652 0.10341
475 1 0.85174 0.0993951 0.150264
476 1 0.801586 0.153849 0.152767
477 1 0.899935 0.101081 0.101133
478 1 0.948283 0.148915 0.0994652
479 1 0.948583 0.101324 0.147798
480 1 0.899318 0.152333 0.15158
481 1 0.999047 0.200494 0.100588
482 1 0.0480382 0.249262 0.0977639
483 1 0.0486989 0.201883 0.146983
484 1 0.00240281 0.250941 0.148392
485 1 0.100631 0.196176 0.101501
486 1 0.147283 0.247673 0.0995879
487 1 0.151686 0.200349 0.148805
488 1 0.100652 0.248828 0.147368
489 1 0.201385 0.199498 0.0992404
490 1 0.249386 0.248947 0.102357
491 1 0.250285 0.199952 0.147772
492 1 0.201121 0.246506 0.150154
493 1 0.306046 0.19759 0.0999745
494 1 0.353876 0.251462 0.097489
495 1 0.35047 0.200312 0.150856
496 1 0.302299 0.251877 0.147454
497 1 0.39991 0.202106 0.10098
498 1 0.449743 0.252184 0.101427
499 1 0.445976 0.201692 0.148342
500 1 0.39943 0.253827 0.148125
501 1 0.502406 0.202924 0.101364
502 1 0.552326 0.252645 0.101516
503 1 0.550825 0.203367 0.153825
504 1 0.502027 0.252305 0.149532
505 1 0.599219 0.204123 0.0998761
506 1 0.647086 0.251525 0.0988466
507 1 0.648781 0.200291 0.147201
508 1 0.601864 0.250808 0.149154
509 1 0.70269 0.200346 0.10269
510 1 0.753182 0.251025 0.0995905
511 1 0.750126 0.200742 0.150889
512 1 0.701065 0.252331 0.151431
513 1 0.796037 0.199298 0.100888
514 1 0.85083 0.248264 0.0984211
515 1 0.850999 0.199083 0.14902
516 1 0.801339 0.251024 0.152386
517 1 0.900211 0.197212 0.102562
518 1 0.950057 0.249744 0.098208
519 1 0.952813 0.201946 0.14856
520 1 0.902143 0.24618 0.151689
521 1 0.00334041 0.301504 0.0989007
522 1 0.0483225 0.347728 0.100657
523 1 0.0521014 0.300199 0.149572
524 1 0.000373801 0.350453 0.150242
525 1 0.0999642 0.299897 0.0986194
526 1 0.150615 0.347304 0.0987325
527 1 0.150792 0.298323 0.148165
528 1 0.0981059 0.348989 0.147488
529 1 0.198472 0.298657 0.0991933
530 1 0.248975 0.355042 0.100487
531 1 0.250551 0.299193 0.148557
532 1 0.200576 0.349282 0.151601
533 1 0.300107 0.303597 0.0979581
534 1 0.349696 0.352042 0.0964709
535 1 0.34603 0.303459 0.146679
536 1 0.298766 0.35003 0.149763
537 1 0.397156 0.305235 0.0998154
538 1 0.451336 0.351698 0.0992404
539 1 0.448767 0.304539 0.148256
540 1 0.400861 0.354235 0.151609
541 1 0.50083 0.297594 0.0985553
542 1 0.548591 0.350942 0.0978368
543 1 0.551668 0.302796 0.149756
544 1 0.497852 0.352672 0.150065
545 1 0.59969 0.302146 0.100493
546 1 0.652861 0.3491 0.10101
547 1 0.646637 0.30266 0.149451
548 1 0.600217 0.350873 0.150157
549 1 0.701816 0.296973 0.100424
550 1 0.750278 0.35018 0.0985916
551 1 0.752341 0.299549 0.151001
552 1 0.702452 0.34984 0.146927
553 1 0.799291 0.301297 0.0961457
554 1 0.850043 0.347641 0.0982576
555 1 0.852246 0.298709 0.153358
556 1 0.803636 0.347346 0.146309
557 1 0.903269 0.30407 0.101005
558 1 0.955444 0.347994 0.100097
559 1 0.95381 0.298136 0.147854
560 1 0.89928 0.351068 0.147282
561 1 0.00402238 0.398122 0.0984955
562 1 0.0509447 0.449395 0.102012
563 1 0.050508 0.400102 0.149099
564 1 0.00105572 0.445231 0.148579
565 1 0.0984337 0.400088 0.101804
566 1 0.148443 0.451052 0.104583
567 1 0.152919 0.399148 0.150776
568 1 0.098317 0.453344 0.1494
569 1 0.196569 0.402459 0.0990552
570 1 0.247686 0.451601 0.102042
571 1 0.24988 0.398069 0.151172
572 1 0.199561 0.450153 0.149698
573 1 0.296923 0.401844 0.0997301
574 1 0.346152 0.448673 0.0991649
575 1 0.347507 0.400031 0.147459
576 1 0.2971 0.450148 0.149135
577 1 0.398369 0.400002 0.0999933
578 1 0.450905 0.446869 0.101085
579 1 0.450837 0.402159 0.147787
580 1 0.400151 0.448314 0.146596
581 1 0.501188 0.398242 0.100035
582 1 0.551684 0.445186 0.100059
583 1 0.549903 0.398288 0.149846
584 1 0.501372 0.452005 0.150122
585 1 0.603055 0.398445 0.0974662
586 1 0.654047 0.44671 0.095989
587 1 0.652886 0.397769 0.146094
588 1 0.603298 0.447954 0.145482
589 1 0.703154 0.399974 0.099652
590 1 0.752788 0.446642 0.0999178
591 1 0.750109 0.397727 0.146882
592 1 0.702518 0.447782 0.149264
593 1 0.800783 0.400467 0.0986577
594 1 0.852966 0.448802 0.0990151
595 1 0.854515 0.40142 0.146334
596 1 0.802156 0.44778 0.147645
597 1 0.901078 0.398725 0.0957201
598 1 0.950442 0.444975 0.0963039
599 1 0.95113 0.399897 0.152921
600 1 0.902628 0.446618 0.145177
601 1 0.998481 0.49862 0.0976581
602 1 0.0474584 0.548718 0.0962404
603 1 0.0498724 0.503284 0.148819
604 1 0.00196871 0.554305 0.144832
605 1 0.0989762 0.500801 0.101065
606 1 0.149807 0.549568 0.10031
607 1 0.149746 0.501253 0.150465
608 1 0.102415 0.550382 0.14813
609 1 0.198382 0.50047 0.0997369
610 1 0.24943 0.547945 0.0970098
611 1 0.248321 0.502222 0.149259
612 1 0.200856 0.548166 0.150797
613 1 0.300547 0.501185 0.0997985
614 1 0.34924 0.548815 0.0969157
615 1 0.349934 0.501077 0.149194
616 1 0.298254 0.551003 0.148452
617 1 0.403182 0.497376 0.0982636
618 1 0.449381 0.5487 0.0966788
619 1 0.451343 0.498529 0.145151
620 1 0.401928 0.547138 0.146443
621 1 0.499475 0.496006 0.0943287
622 1 0.552605 0.547746 0.0993801
623 1 0.552206 0.496531 0.149254
624 1 0.502296 0.547766 0.14656
625 1 0.599727 0.497178 0.0950144
626 1 0.652394 0.547618 0.100611
627 1 0.654576 0.497738 0.150787
628 1 0.600522 0.549579 0.152466
629 1 0.702098 0.495615 0.0998706
630 1 0.75084 0.548616 0.102405
631 1 0.751149 0.498187 0.151299
632 1 0.700606 0.550441 0.147784
633 1 0.795859 0.498543 0.0991815
634 1 0.849121 0.545639 0.0972517
635 1 0.850431 0.498136 0.145067
636 1 0.801694 0.547858 0.145781
637 1 0.900628 0.497522 0.0983733
638 1 0.950815 0.547015 0.099755
639 1 0.952757 0.495173 0.148382
640 1 0.899346 0.54815 0.149415
641 1 0.997607 0.602789 0.0979708
642 1 0.0469226 0.647846 0.0964705
643 1 0.0497533 0.600803 0.148843
644 1 -0.0020788 0.648387 0.149269
645 1 0.0945266 0.598009 0.0993723
646 1 0.149291 0.652466 0.098735
647 1 0.149532 0.603236 0.149385
648 1 0.0979396 0.64769 0.150685
649 1 0.202743 0.599367 0.099444
650 1 0.250085 0.647034 0.0986433
651 1 0.251451 0.59801 0.148924
652 1 0.202753 0.651904 0.149086
653 1 0.298015 0.598852 0.0973227
654 1 0.348661 0.650111 0.0994586
655 1 0.346916 0.598418 0.146622
656 1 0.298522 0.650871 0.14822
657 1 0.398868 0.598128 0.0982515
658 1 0.44678 0.65137 0.0994327
659 1 0.447866 0.601998 0.149755
660 1 0.403176 0.652132 0.149156
661 1 0.496681 0.598931 0.101707
662 1 0.550661 0.652881 0.100753
663 1 0.547278 0.601568 0.147255
664 1 0.497944 0.649664 0.147831
665 1 0.604704 0.596385 0.0996752
666 1 0.649671 0.649084 0.103784
667 1 0.65037 0.597378 0.148258
668 1 0.600556 0.649975 0.148066
669 1 0.70033 0.599817 0.0992752
670 1 0.752578 0.649188 0.09964
671 1 0.748613 0.598442 0.152273
672 1 0.700762 0.646016 0.148431
673 1 0.796953 0.597447 0.0999352
674 1 0.848355 0.654825 0.100968
675 1 0.851664 0.59974 0.147708
676 1 0.797877 0.648813 0.150987
677 1 0.899403 0.605216 0.101077
678 1 0.949942 0.651411 0.0965482
679 1 0.948985 0.600102 0.147434
680 1 0.897876 0.650038 0.151118
681 1 0.000928 0.69882 0.099263
682 1 0.0486654 0.75096 0.0965357
683 1 0.0502882 0.698894 0.152186
684 1 0.00211599 0.752179 0.152888
685 1 0.0995646 0.69577 0.0973194
686 1 0.150059 0.752695 0.0970462
687 1 0.150235 0.702002 0.148512
688 1 0.100857 0.752 0.145124
689 1 0.201667 0.699686 0.100877
690 1 0.250514 0.748608 0.0999521
691 1 0.254456 0.700853 0.151999
692 1 0.20142 0.750244 0.145185
693 1 0.30392 0.700684 0.101347
694 1 0.35377 0.751112 0.0979481
695 1 0.351789 0.697694 0.148545
696 1 0.300037 0.751533 0.150946
697 1 0.400512 0.700921 0.100832
698 1 0.450259 0.750122 0.0997836
699 1 0.449244 0.700753 0.152457
700 1 0.401789 0.750221 0.149752
701 1 0.498799 0.700067 0.101129
702 1 0.550109 0.745887 0.0979389
703 1 0.550533 0.699696 0.151104
704 1 0.504194 0.748585 0.151238
705 1 0.601142 0.699244 0.0990211
706 1 0.648781 0.749285 0.100148
707 1 0.651254 0.702496 0.149546
708 1 0.596713 0.748614 0.148794
709 1 0.701233 0.69815 0.102025
710 1 0.747225 0.749952 0.099415
711 1 0.748743 0.701071 0.150881
712 1 0.700041 0.748221 0.149521
713 1 0.799456 0.703732 0.0965008
714 1 0.851407 0.749786 0.0994662
715 1 0.847111 0.700084 0.15064
716 1 0.79884 0.75022 0.148387
717 1 0.899859 0.701362 0.0936699
718 1 0.953087 0.75226 0.100476
719 1 0.949214 0.6994 0.149941
720 1 0.901076 0.749707 0.149338
721 1 0.00379823 0.801695 0.0996254
722 1 0.0511416 0.849875 0.100253
723 1 0.0514659 0.804411 0.147636
724 1 0.00186977 0.850262 0.150366
725 1 0.100661 0.799869 0.0980491
726 1 0.153857 0.849833 0.0978201
727 1 0.151073 0.803944 0.146176
728 1 0.102227 0.851725 0.147538
729 1 0.199417 0.800582 0.0981322
730 1 0.251088 0.85064 0.0996822
731 1 0.251865 0.798243 0.150492
732 1 0.206701 0.850194 0.148394
733 1 0.298252 0.796776 0.101751
734 1 0.346782 0.851908 0.099675
735 1 0.349018 0.802532 0.14696
736 1 0.298816 0.84792 0.151464
737 1 0.400496 0.80059 0.0987289
738 1 0.453205 0.849942 0.0992916
739 1 0.45124 0.798706 0.149414
740 1 0.398609 0.853645 0.150094
741 1 0.500044 0.797513 0.0982514
742 1 0.552442 0.850879 0.0973171
743 1 0.548585 0.798264 0.150101
744 1 0.499868 0.848649 0.149829
745 1 0.597247 0.799955 0.0962472
746 1 0.650272 0.845673 0.0980555
747 1 0.650749 0.797983 0.149076
748 1 0.600415 0.845869 0.14738
749 1 0.699866 0.799224 0.0984505
750 1 0.748217 0.851832 0.0973385
751 1 0.749044 0.797727 0.15093
752 1 0.697792 0.847882 0.15215
753 1 0.800877 0.797671 0.101831
754 1 0.849212 0.849136 0.100901
755 1 0.848564 0.799662 0.14887
756 1 0.797837 0.850434 0.148691
757 1 0.902897 0.801158 0.0984327
758 1 0.95128 0.850711 0.100459
759 1 0.952565 0.803297 0.150747
760 1 0.898101 0.850242 0.148881
761 1 0.00170301 0.898778 0.0987496
762 1 0.0500715 0.949863 0.100107
763 1 0.052789 0.902215 0.148626
764 1 0.999885 0.950788 0.150536
765 1 0.100986 0.89926 0.0989815
766 1 0.151914 0.949877 0.0990532
767 1 0.153139 0.898198 0.147448
768 1 0.102647 0.952966 0.147327
769 1 0.200211 0.901661 0.0965524
770 1 0.252535 0.947914 0.0996447
771 1 0.249343 0.902318 0.151055
772 1 0.205489 0.952616 0.148771
773 1 0.301659 0.899219 0.101341
774 1 0.347622 0.948328 0.0991627
775 1 0.348611 0.89863 0.14825
776 1 0.301488 0.949131 0.150023
777 1 0.399623 0.898817 0.100157
778 1 0.446144 0.947706 0.0996866
779 1 0.448699 0.900708 0.147607
780 1 0.396423 0.946986 0.151652
781 1 0.502488 0.897461 0.098617
782 1 0.552458 0.947803 0.101389
783 1 0.549422 0.896427 0.148665
784 1 0.503277 0.946803 0.150244
785 1 0.602655 0.898315 0.0997442
786 1 0.651133 0.949893 0.102204
787 1 0.65017 0.898566 0.150162
788 1 0.598938 0.94637 0.148894
789 1 0.698767 0.89872 0.101676
790 1 0.748633 0.949786 0.0997835
791 1 0.74709 0.898851 0.148715
792 1 0.698298 0.950493 0.147371
793 1 0.800328 0.900114 0.0981029
794 1 0.850916 0.950531 0.101104
795 1 0.846449 0.89946 0.14844
796 1 0.801036 0.951292 0.146266
797 1 0.898374 0.901368 0.100101
798 1 0.951538 0.947959 0.101671
799 1 0.952523 0.900083 0.151316
800 1 0.899011 0.947179 0.147557
801 1 -0.000415544 0.00170629 0.198908
802 1 0.0491503 0.0483153 0.196144
803 1 0.0479491 1.0016 0.250144
804 1 0.998406 0.0503026 0.247028
805 1 0.102152 0.00294515 0.19841
806 1 0.152095 0.0553022 0.195982
807 1 0.152103 0.997094 0.250412
808 1 0.10006 0.0475359 0.250294
809 1 0.205693 0.000617433 0.199621
810 1 0.25218 0.0529377 0.200723
811 1 0.254517 -0.000159625 0.251751
812 1 0.201752 0.0523272 0.250875
813 1 0.299419 0.00306913 0.20025
814 1 0.348507 0.0523918 0.198105
815 1 0.351451 -0.00056511 0.250429
816 1 0.301646 0.051745 0.248336
817 1 0.401148 0.999492 0.200512
818 1 0.449443 0.0492151 0.202726
819 1 0.446928 0.998665 0.250273
820 1 0.39979 0.0496388 0.25287
821 1 0.498478 0.000317473 0.204183
822 1 0.549703 0.0452556 0.20078
823 1 0.549698 1.0003 0.249803
824 1 0.500045 0.0508355 0.24945
825 1 0.600463 0.997399 0.201359
826 1 0.649642 0.0529542 0.198951
827 1 0.652175 0.998455 0.248988
828 1 0.598216 0.0471717 0.246085
829 1 0.698956 0.999835 0.199544
830 1 0.748936 0.0502303 0.198121
831 1 0.752401 0.000412957 0.244422
832 1 0.698337 0.0495711 0.250772
833 1 0.801413 0.00270267 0.199423
834 1 0.854148 0.0486411 0.198023
835 1 0.846009 0.999732 0.251941
836 1 0.799817 0.0498173 0.251654
837 1 0.901944 0.999515 0.199058
838 1 0.949335 0.0493693 0.199418
839 1 0.951521 0.999673 0.247942
840 1 0.900916 0.0489216 0.250589
841 1 1.0001 0.101461 0.200076
842 1 0.0508125 0.150854 0.198844
843 1 0.0488612 0.101145 0.247984
844 1 0.00315626 0.152347 0.249183
845 1 0.0998867 0.100782 0.200202
846 1 0.151628 0.148219 0.200081
847 1 0.146732 0.0996556 0.249509
848 1 0.0988439 0.150671 0.249573
849 1 0.201342 0.102613 0.198216
850 1 0.252874 0.150685 0.198993
851 1 0.24841 0.102791 0.248261
852 1 0.199079 0.14985 0.250976
853 1 0.300303 0.10103 0.202361
854 1 0.348126 0.152093 0.200394
855 1 0.347905 0.104244 0.255757
856 1 0.297799 0.151355 0.248057
857 1 0.397883 0.10257 0.201779
858 1 0.449674 0.152134 0.202274
859 1 0.451886 0.10141 0.249067
860 1 0.3997 0.148535 0.251294
861 1 0.503157 0.0990068 0.198559
862 1 0.550235 0.153297 0.203103
863 1 0.548669 0.0980369 0.248658
864 1 0.500041 0.152568 0.250202
865 1 0.598384 0.102661 0.199887
866 1 0.647384 0.152976 0.19922
867 1 0.649166 0.10008 0.248633
868 1 0.599906 0.148777 0.250756
869 1 0.699501 0.10229 0.19894
870 1 0.751001 0.150621 0.200527
871 1 0.750523 0.0996553 0.248995
872 1 0.696943 0.153389 0.247455
873 1 0.803072 0.0981727 0.199956
874 1 0.8494 0.148525 0.20033
875 1 0.848708 0.099083 0.249446
876 1 0.798599 0.147956 0.250789
877 1 0.901065 0.100092 0.201844
878 1 0.947277 0.150115 0.201289
879 1 0.950121 0.102525 0.246805
880 1 0.898238 0.151109 0.250394
881 1 -0.00198414 0.203173 0.200019
882 1 0.0502394 0.251066 0.198779
883 1 0.0538933 0.202311 0.253636
884 1 0.00172969 0.248268 0.251384
885 1 0.0996763 0.199111 0.196615
886 1 0.149849 0.250378 0.194579
887 1 0.148948 0.200196 0.247731
888 1 0.101168 0.251817 0.251807