ITEM: TIMESTEP
15800
ITEM: NUMBER OF ATOMS
4000
ITEM: BOX BOUNDS pp pp pp
0.0000000000000000e+00 1.6795961913825074e+01
0.0000000000000000e+00 1.6795961913825074e+01
0.0000000000000000e+00 1.6795961913825074e+01
ITEM: ATOMS id type xs ys zs
1 1 -0.00179296 0.00471582 0.00466034
2 1 0.0401645 0.0554212 0.999045
3 1 0.0415712 0.00712819 0.0503916
4 1 0.995113 0.0542776 0.0452373
5 1 0.100728 0.995913 0.00164481
6 1 0.145272 0.0529799 -0.000609007
7 1 0.147735 0.00168287 0.0505557
8 1 0.0982513 0.0551205 0.0520558
9 1 0.193646 0.984793 0.9968
10 1 0.247943 0.0560846 0.996411
11 1 0.254008 0.994302 0.0383212
12 1 0.197513 0.0414098 0.0432862
13 1 0.303248 1.00082 0.990093
14 1 0.348437 0.0422415 0.992466
15 1 0.345449 0.997141 0.0491263
16 1 0.298055 0.0470556 0.0397898
17 1 0.395303 0.995665 0.00256444
18 1 0.448244 0.0407759 0.00349215
19 1 0.442927 0.993503 0.0494947
20 1 0.395848 0.0467289 0.0441965
21 1 0.50575 1.00097 0.989976
22 1 0.548124 0.0498793 0.994244
23 1 0.552972 -0.000448137 0.0422052
24 1 0.501182 0.0334737 0.0520519
25 1 0.603008 0.00108619 0.993112
26 1 0.650083 0.043779 0.994383
27 1 0.649721 0.997157 0.0559347
28 1 0.608579 0.045864 0.0504851
29 1 0.698317 0.996859 0.999671
30 1 0.74866 0.0488541 0.00476043
31 1 0.73738 1.00148 0.0506241
32 1 0.694935 0.0538318 0.041918
33 1 0.808431 0.00648479 0.993092
34 1 0.855601 0.0528043 0.990633
35 1 0.848823 0.00790676 0.0454463
36 1 0.798526 0.0524639 0.0472401
37 1 0.90262 0.00456365 0.00843908
38 1 0.944371 0.0512725 1.00138
39 1 0.945665 0.00278566 0.054458
40 1 0.895981 0.0569597 0.0445335
41 1 0.997265 0.103313 0.000243777
42 1 0.0469231 0.149325 0.00179267
43 1 0.0457724 0.101276 0.0464557
44 1 0.992116 0.147146 0.0457169
45 1 0.0946473 0.0987133 0.994607
46 1 0.151842 0.147336 0.993021
47 1 0.148968 0.105511 0.055362
48 1 0.0991878 0.1482 0.0451499
49 1 0.201217 0.105737 0.992944
50 1 0.249678 0.147526 0.998557
51 1 0.253049 0.106039 0.0462307
52 1 0.198859 0.158079 0.0484668
53 1 0.296691 0.102786 0.992823
54 1 0.3521 0.149532 0.997553
55 1 0.346742 0.100511 0.0403083
56 1 0.302376 0.151333 0.0409901
57 1 0.399473 0.101136 0.987304
58 1 0.450016 0.144174 0.992512
59 1 0.448666 0.0981819 0.0385725
60 1 0.403067 0.144194 0.0390887
61 1 0.49888 0.0905703 0.996682
62 1 0.545091 0.13846 0.996235
63 1 0.543586 0.0877927 0.0512847
64 1 0.496984 0.14174 0.0344904
65 1 0.599828 0.0885243 1.00196
66 1 0.643944 0.142547 0.999613
67 1 0.648338 0.0994691 0.0507144
68 1 0.592542 0.141242 0.0433525
69 1 0.699728 0.0970095 0.993365
70 1 0.749653 0.142054 0.996309
71 1 0.750208 0.105328 0.0469064
72 1 0.696439 0.144878 0.0563963
73 1 0.803368 0.0989972 0.000222642
74 1 0.852256 0.152853 1.00109
75 1 0.850509 0.103185 0.0456436
76 1 0.800243 0.156206 0.040603
77 1 0.89829 0.101605 0.999869
78 1 0.952674 0.15294 0.999344
79 1 0.947605 0.0979887 0.0513782
80 1 0.900586 0.149013 0.0478096
81 1 0.00183975 0.200844 0.00456442
82 1 0.0470198 0.252461 0.995379
83 1 0.0565889 0.198155 0.0494337
84 1 0.993635 0.248857 0.0442064
85 1 0.100505 0.204358 0.00409299
86 1 0.149514 0.242228 0.995363
87 1 0.148132 0.197601 0.043288
88 1 0.0968087 0.249135 0.0513664
89 1 0.192381 0.195305 0.988188
90 1 0.2439 0.249506 0.991729
91 1 0.245287 0.199252 0.0377971
92 1 0.198699 0.249823 0.049009
93 1 0.300761 0.203096 0.00310213
94 1 0.350129 0.251955 0.00336408
95 1 0.347965 0.205455 0.0461269
96 1 0.301384 0.249285 0.045873
97 1 0.402765 0.195462 0.994935
98 1 0.444658 0.24807 0.995071
99 1 0.455052 0.186811 0.0419438
100 1 0.397909 0.253799 0.0485488
101 1 0.496856 0.194498 0.990554
102 1 0.534329 0.24899 0.989845
103 1 0.547697 0.195794 0.0370624
104 1 0.487541 0.240332 0.0415771
105 1 0.601121 0.188134 0.995859
106 1 0.646355 0.238899 0.997928
107 1 0.643187 0.183893 0.0537431
108 1 0.600883 0.251572 0.0366217
109 1 0.70608 0.19276 1.00084
110 1 0.753508 0.249449 0.999647
111 1 0.747962 0.196062 0.0477583
112 1 0.693731 0.229377 0.0512322
113 1 0.804236 0.198454 0.989866
114 1 0.848192 0.247379 0.989467
115 1 0.849854 0.203305 0.0444619
116 1 0.800463 0.247957 0.0419659
117 1 0.897822 0.204992 0.995941
118 1 0.948151 0.245576 0.992705
119 1 0.95092 0.196582 0.0460004
120 1 0.905485 0.240677 0.0512494
121 1 0.997929 0.293545 0.992723
122 1 0.0379479 0.352371 0.00247748
123 1 0.0498647 0.293581 0.0500844
124 1 0.00387614 0.348038 0.0554425
125 1 0.096417 0.29485 0.999176
126 1 0.141762 0.340533 0.996436
127 1 0.146134 0.293721 0.0471641
128 1 0.096327 0.336365 0.0570603
129 1 0.198286 0.301063 0.992648
130 1 0.247255 0.348201 0.998035
131 1 0.248789 0.297758 0.0386949
132 1 0.192306 0.339688 0.0528497
133 1 0.301457 0.299746 0.997172
134 1 0.347737 0.351377 0.00143619
135 1 0.347926 0.300661 0.0457027
136 1 0.297031 0.348452 0.0466036
137 1 0.4056 0.307155 0.997962
138 1 0.454348 0.359883 0.996817
139 1 0.449888 0.301465 0.0477824
140 1 0.403837 0.350438 0.0504985
141 1 0.491042 0.299304 0.9888
142 1 0.544162 0.35769 0.00173717
143 1 0.541476 0.296357 0.0356477
144 1 0.502106 0.362311 0.0502363
145 1 0.595809 0.310176 0.998626
146 1 0.651425 0.353657 0.994191
147 1 0.659912 0.293723 0.0470363
148 1 0.596723 0.35094 0.0440802
149 1 0.700881 0.305129 0.997213
150 1 0.753764 0.356714 0.996331
151 1 0.748919 0.308012 0.0482575
152 1 0.695567 0.344004 0.047368
153 1 0.796463 0.299437 1.00082
154 1 0.851766 0.339613 0.99604
155 1 0.845247 0.29189 0.0421937
156 1 0.801763 0.354217 0.0439563
157 1 0.898236 0.295074 0.00276729
158 1 0.948154 0.348654 0.00121799
159 1 0.947951 0.296998 0.0535929
160 1 0.895968 0.355207 0.0524335
161 1 1.00012 0.40662 0.990727
162 1 0.0564326 0.439776 0.990889
163 1 0.0586161 0.390013 0.0580215
164 1 0.00167075 0.448037 0.0479044
165 1 0.0956811 0.387933 0.00504492
166 1 0.133721 0.440901 0.994538
167 1 0.14055 0.393129 0.0529321
168 1 0.0916877 0.447694 0.0462534
169 1 0.195609 0.39576 0.00798326
170 1 0.240962 0.445234 0.0023303
171 1 0.252274 0.401291 0.051252
172 1 0.191964 0.454058 0.0484309
173 1 0.299648 0.407929 0.00156414
174 1 0.348811 0.451652 0.00177213
175 1 0.341004 0.411669 0.0537593
176 1 0.29263 0.452922 0.0487525
177 1 0.4007 0.408886 0.997246
178 1 0.445924 0.458811 0.997037
179 1 0.443059 0.406131 0.0519868
180 1 0.391086 0.456079 0.058356
181 1 0.499804 0.403416 0.99576
182 1 0.545622 0.44962 0.998526
183 1 0.554319 0.402703 0.0447237
184 1 0.506301 0.445509 0.053986
185 1 0.603202 0.396074 0.99871
186 1 0.652841 0.444793 0.994328
187 1 0.652569 0.393762 0.0461049
188 1 0.603476 0.448837 0.042685
189 1 0.703612 0.393375 0.000854693
190 1 0.746854 0.447145 0.988335
191 1 0.751798 0.394661 0.0484139
192 1 0.700947 0.443003 0.0408857
193 1 0.799877 0.409886 0.993537
194 1 0.851747 0.443238 0.988623
195 1 0.850736 0.407931 0.0504834
196 1 0.801525 0.453146 0.0525327
197 1 0.905508 0.399897 0.996976
198 1 0.951612 0.445194 -0.00016279
199 1 0.954826 0.394117 0.0492709
200 1 0.90748 0.44785 0.0452978
201 1 0.998866 0.496355 0.997129
202 1 0.0480505 0.541569 0.00205039
203 1 0.0510392 0.497245 0.0467515
204 1 0.00328107 0.543451 0.0483095
205 1 0.0960678 0.495609 0.996714
206 1 0.140657 0.543576 0.995973
207 1 0.139673 0.492393 0.0451596
208 1 0.0959683 0.544525 0.0432528
209 1 0.19565 0.496654 0.996474
210 1 0.243353 0.550703 0.00209579
211 1 0.242223 0.499991 0.0564159
212 1 0.1823 0.537924 0.0526853
213 1 0.29858 0.500956 0.996554
214 1 0.352407 0.549028 0.00328538
215 1 0.343955 0.496778 0.0439164
216 1 0.29438 0.553083 0.0455995
217 1 0.399336 0.497843 0.0130687
218 1 0.456302 0.546777 0.990096
219 1 0.454292 0.499158 0.0523629
220 1 0.400605 0.555086 0.0464117
221 1 0.499093 0.498142 0.999639
222 1 0.552245 0.556499 0.99262
223 1 0.549254 0.496123 0.0488275
224 1 0.496991 0.54783 0.0459116
225 1 0.596196 0.495416 0.996243
226 1 0.640547 0.544069 0.988118
227 1 0.656043 0.497179 0.0366622
228 1 0.596411 0.550402 0.0390898
229 1 0.706377 0.496771 0.993935
230 1 0.759786 0.540736 0.00231178
231 1 0.748409 0.491618 0.0469944
232 1 0.699185 0.549136 0.0395272
233 1 0.799344 0.491908 0.999441
234 1 0.839565 0.551794 0.993812
235 1 0.849253 0.501224 0.0548941
236 1 0.791078 0.548012 0.0567914
237 1 0.896635 0.500562 0.00630788
238 1 0.952747 0.548104 0.00485669
239 1 0.953472 0.496122 0.0476031
240 1 0.900895 0.551521 0.0498929
241 1 0.995534 0.594792 -0.00065973
242 1 0.041127 0.648227 0.99716
243 1 0.045163 0.60195 0.0444034
244 1 0.99922 0.644677 0.0519419
245 1 0.0970136 0.597512 0.998983
246 1 0.14631 0.651224 0.997642
247 1 0.1463 0.596646 0.0438664
248 1 0.0948739 0.648371 0.0413311
249 1 0.199369 0.60035 0.989424
250 1 0.246659 0.648532 0.997116
251 1 0.248249 0.603117 0.0478631
252 1 0.198848 0.643169 0.0467264
253 1 0.295449 0.595625 0.996939
254 1 0.355925 0.649705 0.998304
255 1 0.354308 0.598034 0.048041
256 1 0.308253 0.65105 0.0430456
257 1 0.393929 0.602254 -7.025e-05
258 1 0.460349 0.652899 0.994627
259 1 0.448329 0.598331 0.0381523
260 1 0.401925 0.65199 0.04939
261 1 0.501361 0.595389 0.996681
262 1 0.553931 0.656403 0.994929
263 1 0.55556 0.602788 0.0365744
264 1 0.503323 0.648503 0.0365759
265 1 0.607923 0.600225 0.991977
266 1 0.651882 0.647361 0.990285
267 1 0.650392 0.595982 0.0418281
268 1 0.598489 0.652318 0.047691
269 1 0.708147 0.599715 0.999961
270 1 0.752362 0.646894 0.00137101
271 1 0.747615 0.590902 0.0519253
272 1 0.705807 0.645459 0.0443973
273 1 0.795197 0.601324 0.00524422
274 1 0.856261 0.650061 0.995459
275 1 0.847089 0.595261 0.0509609
276 1 0.803369 0.646345 0.0552854
277 1 0.900341 0.591706 0.99289
278 1 0.949317 0.647547 0.995182
279 1 0.951792 0.598264 0.054237
280 1 0.894264 0.646361 0.0583935
281 1 0.995542 0.695453 0.994457
282 1 0.0451905 0.745597 0.99396
283 1 0.0413801 0.699351 0.0404167
284 1 0.989152 0.741067 0.0521069
285 1 0.0981965 0.698344 0.996682
286 1 0.142291 0.747306 0.99889
287 1 0.147207 0.691347 0.0453902
288 1 0.0959058 0.751955 0.0496449
289 1 0.198481 0.695791 0.992506
290 1 0.254592 0.749233 0.00854281
291 1 0.253465 0.692617 0.0542789
292 1 0.1942 0.749113 0.0452017
293 1 0.304145 0.693145 0.992971
294 1 0.354046 0.741229 0.00168652
295 1 0.356676 0.69791 0.0497228
296 1 0.304809 0.73037 0.0478021
297 1 0.406347 0.689163 0.00145403
298 1 0.45931 0.752509 0.998485
299 1 0.456559 0.69494 0.0434585
300 1 0.404994 0.745474 0.0465154
301 1 0.501137 0.706353 0.000382183
302 1 0.551438 0.754054 0.995414
303 1 0.555322 0.700751 0.0353705
304 1 0.495328 0.75622 0.0547636
305 1 0.605203 0.693165 0.99651
306 1 0.652063 0.741055 0.00372654
307 1 0.653474 0.688991 0.0507826
308 1 0.604902 0.747077 0.0526778
309 1 0.704942 0.696208 1.00042
310 1 0.760634 0.748635 -0.000662778
311 1 0.765477 0.697441 0.0442013
312 1 0.711855 0.749307 0.0474413
313 1 0.807134 0.690572 0.997285
314 1 0.849323 0.740302 0.994141
315 1 0.858398 0.699436 0.0530026
316 1 0.801204 0.75066 0.0476096
317 1 0.894554 0.69551 0.995175
318 1 0.95317 0.742323 0.998444
319 1 0.947718 0.691083 0.0463795
320 1 0.897371 0.752155 0.0366619
321 1 1.00067 0.79953 0.993965
322 1 0.0487416 0.845656 0.995778
323 1 0.0414417 0.795714 0.0496072
324 1 0.985152 0.849295 0.0526824
325 1 0.0913595 0.793724 0.997045
326 1 0.14803 0.84373 0.989489
327 1 0.140626 0.805557 0.0424274
328 1 0.0910666 0.850399 0.044658
329 1 0.194333 0.795735 0.00145127
330 1 0.255457 0.842518 0.999139
331 1 0.248383 0.798703 0.0498751
332 1 0.194308 0.84472 0.0520367
333 1 0.300321 0.795221 0.00666095
334 1 0.354994 0.843643 0.000772249
335 1 0.360157 0.791739 0.0438539
336 1 0.306737 0.837435 0.0478585
337 1 0.412084 0.794798 0.00543044
338 1 0.460891 0.847338 -0.000865465
339 1 0.457252 0.807773 0.0507169
340 1 0.40416 0.848073 0.0494262
341 1 0.504902 0.795877 0.99758
342 1 0.560538 0.841806 0.00738012
343 1 0.552993 0.799648 0.053459
344 1 0.49961 0.85216 0.0569389
345 1 0.604248 0.799505 1.00004
346 1 0.660757 0.842606 1.00067
347 1 0.66296 0.790982 0.0424041
348 1 0.605056 0.850083 0.0586875
349 1 0.712096 0.800173 -0.000292785
350 1 0.760876 0.844803 0.998103
351 1 0.757523 0.79934 0.0487297
352 1 0.707385 0.842443 0.0473814
353 1 0.807697 0.793516 0.99849
354 1 0.847633 0.843801 0.994078
355 1 0.845468 0.794987 0.0472136
356 1 0.805102 0.845675 0.0506669
357 1 0.894148 0.795902 0.997668
358 1 0.942837 0.837987 0.992123
359 1 0.942941 0.795812 0.0513782
360 1 0.89125 0.851571 0.0459762
361 1 0.986447 0.892367 0.00309419
362 1 0.031539 0.945279 0.00748341
363 1 0.0385653 0.904578 0.0639516
364 1 0.986114 0.940056 0.0515169
365 1 0.101308 0.891452 0.987679
366 1 0.146898 0.937126 0.00165591
367 1 0.141116 0.899684 0.0535386
368 1 0.0895004 0.943875 0.0496146
369 1 0.191524 0.894115 0.00211877
370 1 0.247369 0.940844 0.997982
371 1 0.243045 0.900699 0.0554229
372 1 0.19309 0.948676 0.0557648
373 1 0.302516 0.894427 0.00523097
374 1 0.349546 0.948079 -0.00158221
375 1 0.353317 0.894381 0.0493198
376 1 0.29929 0.941401 0.0502955
377 1 0.400506 0.887345 0.996649
378 1 0.457553 0.951525 0.998282
379 1 0.451194 0.898873 0.0443909
380 1 0.396467 0.948743 0.0489856
381 1 0.504895 0.899009 0.9964
382 1 0.54996 0.948678 0.990772
383 1 0.552898 0.890466 0.0529328
384 1 0.500874 0.941784 0.0483965
385 1 0.596602 0.898434 0.00436804
386 1 0.653033 0.950803 0.00102646
387 1 0.651436 0.897045 0.0373879
388 1 0.599546 0.951953 0.0430348
389 1 0.711112 0.89047 0.996317
390 1 0.750477 0.953671 0.00368922
391 1 0.749991 0.898691 0.0469368
392 1 0.69945 0.952419 0.0468146
393 1 0.803231 0.898464 0.0045167
394 1 0.854063 0.955034 0.996665
395 1 0.849633 0.901277 0.0490045
396 1 0.792151 0.956473 0.0557393
397 1 0.892789 0.897505 1.00034
398 1 0.944321 0.954471 0.996456
399 1 0.934001 0.900903 0.0535273
400 1 0.895119 0.949595 0.0445275
401 1 0.993255 0.00724985 0.100681
402 1 0.0550027 0.0442949 0.105986
403 1 0.038865 0.999463 0.15653
404 1 0.992529 0.0507882 0.14775
405 1 0.0924778 0.994286 0.0871151
406 1 0.141732 0.0487924 0.105604
407 1 0.14589 0.994713 0.147584
408 1 0.0999382 0.0404127 0.156979
409 1 0.204688 0.998083 0.105099
410 1 0.265355 0.0547238 0.0962834
411 1 0.254546 0.998969 0.149632
412 1 0.199638 0.0507058 0.141741
413 1 0.294148 0.992356 0.0956666
414 1 0.348285 0.0452574 0.0982215
415 1 0.3424 0.99476 0.145389
416 1 0.305445 0.0538051 0.155176
417 1 0.393192 0.99079 0.100247
418 1 0.448671 0.0514886 0.0974888
419 1 0.44047 0.999391 0.149452
420 1 0.397086 0.0601509 0.147661
421 1 0.496955 0.996925 0.105091
422 1 0.545149 0.0409258 0.101498
423 1 0.547866 0.994095 0.152351
424 1 0.49786 0.051135 0.151367
425 1 0.596279 0.998757 0.0967411
426 1 0.650258 0.0446348 0.0970182
427 1 0.649511 0.00289027 0.148632
428 1 0.601966 0.0464502 0.144574
429 1 0.693628 0.99467 0.106497
430 1 0.745061 0.0534017 0.0873356
431 1 0.746064 0.995214 0.144706
432 1 0.69721 0.0432139 0.142267
433 1 0.795033 0.00707007 0.0920658
434 1 0.84877 0.0496135 0.096181
435 1 0.850626 0.997404 0.159812
436 1 0.794123 0.0494344 0.145324
437 1 0.895695 0.00402033 0.0855315
438 1 0.947293 0.0513085 0.0990762
439 1 0.950703 0.00536497 0.159186
440 1 0.898794 0.0398952 0.152851
441 1 0.994865 0.0891962 0.101581
442 1 0.0534553 0.152487 0.10046
443 1 0.0590542 0.0993479 0.146519
444 1 0.00634014 0.145938 0.143109
445 1 0.103948 0.109022 0.104234
446 1 0.154137 0.155083 0.104155
447 1 0.158465 0.105059 0.150771
448 1 0.098935 0.15852 0.147407
449 1 0.201442 0.107053 0.100295
450 1 0.251796 0.156349 0.09273
451 1 0.258007 0.0950444 0.140909
452 1 0.208893 0.156735 0.145731
453 1 0.305299 0.104618 0.0885575
454 1 0.362758 0.147953 0.0859257
455 1 0.351792 0.103764 0.144772
456 1 0.302409 0.149738 0.134702
457 1 0.402487 0.0973636 0.0871649
458 1 0.46272 0.13986 0.0940026
459 1 0.456614 0.0973282 0.148994
460 1 0.407831 0.143296 0.140072
461 1 0.499882 0.0883755 0.0971128
462 1 0.543136 0.144423 0.0879187
463 1 0.549784 0.0966007 0.142815
464 1 0.504191 0.150152 0.148549
465 1 0.591844 0.095054 0.0964982
466 1 0.641419 0.136201 0.102138
467 1 0.654041 0.0925154 0.150485
468 1 0.595382 0.141898 0.144244
469 1 0.696128 0.0987196 0.102276
470 1 0.750873 0.151133 0.0944985
471 1 0.745771 0.0997962 0.148723
472 1 0.693918 0.143285 0.14713
473 1 0.800391 0.0982743 0.0960815
474 1 0.850018 0.155751 0.0936499
475 1 0.845588 0.0895469 0.151094
476 1 0.795534 0.146609 0.1457
477 1 0.893937 0.100783 0.10135
478 1 0.947473 0.152264 0.0913141
479 1 0.942944 0.0941865 0.150563
480 1 0.894531 0.154108 0.150038
481 1 0.0012097 0.201385 0.0935196
482 1 0.0432513 0.252427 0.103845
483 1 0.0477602 0.201067 0.155277
484 1 0.998204 0.248419 0.152288
485 1 0.107452 0.199395 0.0979781
486 1 0.145495 0.250111 0.10135
487 1 0.156598 0.19722 0.15263
488 1 0.0983266 0.255865 0.153556
489 1 0.199102 0.205465 0.0966105
490 1 0.245148 0.255363 0.106518
491 1 0.256278 0.199571 0.154365
492 1 0.192697 0.249086 0.147472
493 1 0.296487 0.200046 0.0869561
494 1 0.352789 0.247716 0.0960374
495 1 0.352122 0.190838 0.132223
496 1 0.305558 0.249896 0.143131
497 1 0.402202 0.197928 0.0916448
498 1 0.44279 0.253099 0.094694
499 1 0.453458 0.205376 0.142704
500 1 0.405806 0.250497 0.145928
501 1 0.502247 0.198415 0.0918797
502 1 0.535234 0.264252 0.0971104
503 1 0.552137 0.203437 0.146669
504 1 0.499179 0.256453 0.147122
505 1 0.598409 0.192582 0.0996131
506 1 0.644627 0.243901 0.0908769
507 1 0.647456 0.20308 0.145756
508 1 0.598815 0.250023 0.1413
509 1 0.69525 0.195809 0.10341
510 1 0.749394 0.250353 0.0890071
511 1 0.741225 0.195804 0.146424
512 1 0.694997 0.254072 0.144061
513 1 0.796806 0.2049 0.0868072
514 1 0.847377 0.246626 0.0943356
515 1 0.845173 0.203297 0.152379
516 1 0.789107 0.249682 0.139529
517 1 0.89477 0.199916 0.101488
518 1 0.950054 0.245239 0.0929343
519 1 0.947291 0.203713 0.140243
520 1 0.896362 0.247756 0.146541
521 1 0.99664 0.293691 0.102193
522 1 0.052915 0.338072 0.104838
523 1 0.0434164 0.296099 0.154455
524 1 0.995968 0.345376 0.145916
525 1 0.106568 0.298447 0.103453
526 1 0.150497 0.346342 0.101789
527 1 0.146971 0.29571 0.154903
528 1 0.095935 0.341131 0.153844
529 1 0.196291 0.297991 0.105895
530 1 0.245476 0.347537 0.0922353
531 1 0.256539 0.300416 0.150551
532 1 0.198879 0.348659 0.147073
533 1 0.301188 0.29375 0.0944349
534 1 0.356685 0.355711 0.0984211
535 1 0.357727 0.302334 0.142028
536 1 0.305818 0.352225 0.14399
537 1 0.404791 0.306694 0.0969606
538 1 0.447798 0.35839 0.099126
539 1 0.44959 0.302727 0.143388
540 1 0.39997 0.354088 0.149459
541 1 0.494812 0.313037 0.10072
542 1 0.549539 0.360059 0.101591
543 1 0.554749 0.303398 0.152023
544 1 0.500936 0.352758 0.150915
545 1 0.591562 0.290838 0.0851796
546 1 0.641874 0.346893 0.0985978
547 1 0.650383 0.306299 0.151152
548 1 0.587373 0.356382 0.152825
549 1 0.692395 0.305197 0.103369
550 1 0.746765 0.347391 0.0994008
551 1 0.744064 0.302181 0.14886
552 1 0.696385 0.353543 0.152208
553 1 0.794738 0.303555 0.0907663
554 1 0.84229 0.347815 0.0916029
555 1 0.8377 0.304021 0.141526
556 1 0.801217 0.356937 0.145227
557 1 0.898567 0.298598 0.0969142
558 1 0.952858 0.342754 0.0902759
559 1 0.947128 0.290225 0.144196
560 1 0.893912 0.336614 0.148217
561 1 0.00520934 0.40396 0.0959696
562 1 0.058099 0.436685 0.10103
563 1 0.0504791 0.395566 0.150933
564 1 0.997716 0.445139 0.151484
565 1 0.0975406 0.387455 0.109025
566 1 0.144883 0.450214 0.100633
567 1 0.152343 0.395777 0.148854
568 1 0.103676 0.449225 0.151957
569 1 0.194108 0.398748 0.0957206
570 1 0.244163 0.446303 0.0987978
571 1 0.251661 0.398596 0.142437
572 1 0.202487 0.453999 0.147724
573 1 0.300887 0.398611 0.0988964
574 1 0.350628 0.448422 0.110415
575 1 0.351064 0.402862 0.152537
576 1 0.292728 0.453681 0.139599
577 1 0.396038 0.405806 0.0974144
578 1 0.449015 0.457556 0.098569
579 1 0.448411 0.405096 0.147548
580 1 0.401689 0.462507 0.149347
581 1 0.497406 0.39921 0.107003
582 1 0.556213 0.451074 0.0933056
583 1 0.550614 0.406702 0.14845
584 1 0.50018 0.455276 0.148167
585 1 0.60395 0.406688 0.0904374
586 1 0.654433 0.44361 0.0947527
587 1 0.650733 0.396252 0.139739
588 1 0.60427 0.446794 0.13993
589 1 0.704952 0.395495 0.0951492
590 1 0.750655 0.449466 0.0999236
591 1 0.746895 0.400055 0.146498
592 1 0.700913 0.452266 0.146254
593 1 0.797221 0.40226 0.0969063
594 1 0.852219 0.447077 0.09619
595 1 0.851316 0.401772 0.139457
596 1 0.797324 0.441356 0.147276
597 1 0.899091 0.391426 0.101247
598 1 0.953708 0.449878 0.0994953
599 1 0.952265 0.395315 0.147386
600 1 0.903048 0.452112 0.146333
601 1 -0.000884955 0.495742 0.103968
602 1 0.0493221 0.541646 0.0990166
603 1 0.0505032 0.48226 0.143688
604 1 0.00790378 0.53918 0.151446
605 1 0.0896491 0.493314 0.0991035
606 1 0.132496 0.53917 0.0981989
607 1 0.148754 0.496139 0.148361
608 1 0.0925875 0.539629 0.149975
609 1 0.195712 0.50005 0.103459
610 1 0.237199 0.553961 0.0985046
611 1 0.248151 0.501847 0.148021
612 1 0.190907 0.545014 0.155252
613 1 0.291017 0.505085 0.103545
614 1 0.346857 0.546666 0.0928929
615 1 0.34075 0.500191 0.152014
616 1 0.306618 0.553106 0.150371
617 1 0.399518 0.504419 0.0935462
618 1 0.456133 0.558287 0.102026
619 1 0.452755 0.506839 0.146115
620 1 0.402676 0.548447 0.145841
621 1 0.503237 0.503168 0.100913
622 1 0.552913 0.549597 0.0933588
623 1 0.545208 0.498414 0.149414
624 1 0.501209 0.54796 0.147781
625 1 0.598492 0.501187 0.0889224
626 1 0.647898 0.552925 0.0957223
627 1 0.645125 0.501578 0.134009
628 1 0.59806 0.545605 0.139263
629 1 0.701803 0.4986 0.0901905
630 1 0.752383 0.540731 0.100656
631 1 0.753704 0.490908 0.155178
632 1 0.698383 0.539166 0.150454
633 1 0.802294 0.493631 0.0980241
634 1 0.853687 0.550221 0.105308
635 1 0.847985 0.49807 0.14715
636 1 0.800527 0.542657 0.145681
637 1 0.902064 0.505297 0.0997495
638 1 0.957526 0.544801 0.0920037
639 1 0.952912 0.505302 0.155128
640 1 0.898569 0.545673 0.154851
641 1 0.00947876 0.595707 0.0967459
642 1 0.0525202 0.647115 0.092791
643 1 0.0563896 0.597219 0.147814
644 1 0.00542386 0.637449 0.146823
645 1 0.102948 0.598916 0.09113
646 1 0.145172 0.647615 0.0933799
647 1 0.133895 0.596413 0.150885
648 1 0.0970597 0.647002 0.137319
649 1 0.183621 0.590487 0.0988956
650 1 0.242091 0.642266 0.10248
651 1 0.242253 0.591555 0.150366
652 1 0.18887 0.635235 0.148322
653 1 0.298544 0.598747 0.0991062
654 1 0.35216 0.653304 0.0976
655 1 0.346266 0.605064 0.151294
656 1 0.298098 0.653319 0.153044
657 1 0.402503 0.602851 0.0915676
658 1 0.454455 0.641769 0.0910529
659 1 0.446431 0.603174 0.147601
660 1 0.392781 0.64358 0.148463
661 1 0.504788 0.595616 0.0938611
662 1 0.547841 0.65073 0.0901381
663 1 0.55531 0.592458 0.144781
664 1 0.498734 0.654149 0.145843
665 1 0.603995 0.601246 0.0877875
666 1 0.65776 0.637115 0.0932521
667 1 0.644817 0.600988 0.150417
668 1 0.601558 0.652397 0.142544
669 1 0.703165 0.594349 0.103423
670 1 0.751748 0.636038 0.10298
671 1 0.75208 0.590025 0.145168
672 1 0.701325 0.64602 0.146172
673 1 0.803519 0.59058 0.102592
674 1 0.848979 0.636806 0.102693
675 1 0.847312 0.596625 0.157557
676 1 0.796262 0.641292 0.148765
677 1 0.904831 0.591156 0.103651
678 1 0.946807 0.649799 0.108464
679 1 0.963219 0.589741 0.138634
680 1 0.8968 0.647762 0.15433
681 1 0.994269 0.696123 0.0983258
682 1 0.0494014 0.743193 0.0990363
683 1 0.0408297 0.694732 0.155361
684 1 0.996522 0.735189 0.14715
685 1 0.0951168 0.696122 0.0942844
686 1 0.14686 0.746155 0.090177
687 1 0.14783 0.699104 0.143154
688 1 0.0996464 0.74653 0.141762
689 1 0.199507 0.696258 0.0946387
690 1 0.250731 0.754753 0.100955
691 1 0.242908 0.696663 0.147961
692 1 0.196234 0.747807 0.148954
693 1 0.296958 0.697936 0.104414
694 1 0.355677 0.740424 0.0961781
695 1 0.346825 0.697429 0.149348
696 1 0.298792 0.750232 0.152776
697 1 0.413841 0.697437 0.093743
698 1 0.45366 0.754363 0.102122
699 1 0.446101 0.687066 0.148533
700 1 0.402173 0.746005 0.141872
701 1 0.501417 0.696904 0.0937595
702 1 0.548554 0.739965 0.0855703
703 1 0.554149 0.704844 0.140658
704 1 0.492398 0.728191 0.149666
705 1 0.608137 0.704805 0.104184
706 1 0.665763 0.744304 0.0979276
707 1 0.656275 0.698009 0.146772
708 1 0.60619 0.746774 0.15703
709 1 0.710671 0.686196 0.0934158
710 1 0.755835 0.745944 0.101143
711 1 0.755387 0.68986 0.140497
712 1 0.705653 0.737754 0.149749
713 1 0.805592 0.702435 0.0978709
714 1 0.857635 0.751339 0.10368
715 1 0.846975 0.699005 0.149609
716 1 0.79443 0.744093 0.146289
717 1 0.894647 0.69671 0.107304
718 1 0.939645 0.74428 0.106929
719 1 0.946708 0.698094 0.148487
720 1 0.894568 0.747283 0.152471
721 1 0.991759 0.78785 0.106179
722 1 0.037732 0.848899 0.095889
723 1 0.0480596 0.806309 0.141666
724 1 0.992167 0.842891 0.142377
725 1 0.0933778 0.806842 0.0961726
726 1 0.142708 0.850408 0.0973862
727 1 0.145785 0.797377 0.145201
728 1 0.0983388 0.850604 0.150584
729 1 0.191227 0.800341 0.100263
730 1 0.246335 0.849445 0.105199
731 1 0.24898 0.803391 0.153543
732 1 0.197975 0.843776 0.146402
733 1 0.308921 0.779248 0.083816
734 1 0.35023 0.847993 0.101116
735 1 0.355322 0.796091 0.140325
736 1 0.302209 0.840693 0.155479
737 1 0.401697 0.788452 0.0945134
738 1 0.44921 0.848097 0.100803
739 1 0.442657 0.801225 0.149377
740 1 0.39784 0.850597 0.147491
741 1 0.505499 0.795172 0.101771
742 1 0.55006 0.846202 0.102782
743 1 0.557731 0.790232 0.146511
744 1 0.493876 0.848592 0.148861
745 1 0.608313 0.792191 0.0983675
746 1 0.656309 0.858517 0.0965425
747 1 0.65134 0.815993 0.153186
748 1 0.599921 0.848464 0.149892
749 1 0.703238 0.799498 0.0987187
750 1 0.75752 0.844733 0.100499
751 1 0.750391 0.796976 0.148637
752 1 0.703706 0.849645 0.143785
753 1 0.806377 0.798231 0.0964357
754 1 0.851375 0.848101 0.101617
755 1 0.846354 0.797958 0.1477
756 1 0.801482 0.844248 0.150647
757 1 0.901621 0.794207 0.100356
758 1 0.937242 0.851012 0.10159
759 1 0.940695 0.803784 0.15174
760 1 0.891999 0.842302 0.154182
761 1 0.986285 0.894356 0.0988293
762 1 0.0401935 0.957619 0.100615
763 1 0.0413754 0.89328 0.146063
764 1 0.989808 0.956298 0.139669
765 1 0.0916704 0.900588 0.106107
766 1 0.13821 0.945238 0.10399
767 1 0.143314 0.897228 0.14641
768 1 0.0870945 0.949275 0.144077
769 1 0.195498 0.903817 0.103853
770 1 0.249661 0.940846 0.101294
771 1 0.254228 0.885603 0.155968
772 1 0.218344 0.935962 0.155207
773 1 0.29886 0.894436 0.102637
774 1 0.345073 0.946585 0.0964672
775 1 0.343256 0.893706 0.156557
776 1 0.295057 0.950988 0.148962
777 1 0.40911 0.893504 0.09993
778 1 0.452272 0.949304 0.0993368
779 1 0.445841 0.901031 0.153839
780 1 0.397447 0.947449 0.144905
781 1 0.495408 0.895077 0.103531
782 1 0.549337 0.949741 0.0968346
783 1 0.546883 0.902912 0.150176
784 1 0.497919 0.947129 0.151405
785 1 0.592372 0.900993 0.10121
786 1 0.64932 0.931336 0.0965066
787 1 0.645255 0.899311 0.152049
788 1 0.606165 0.945878 0.142597
789 1 0.704584 0.898298 0.100475
790 1 0.741181 0.951287 0.0935384
791 1 0.759391 0.905544 0.155136
792 1 0.704539 0.943504 0.14593
793 1 0.797407 0.902462 0.0949307
794 1 0.851896 0.95544 0.0980398
795 1 0.84705 0.897868 0.147886
796 1 0.80187 0.962487 0.14097
797 1 0.894096 0.910707 0.108918
798 1 0.93945 0.956949 0.100715
799 1 0.94474 0.893241 0.15181
800 1 0.893878 0.952718 0.15399
801 1 0.99558 0.997314 0.20616
802 1 0.0559167 0.0438753 0.203509
803 1 0.0369972 0.993907 0.253269
804 1 0.99176 0.0504641 0.24009
805 1 0.106103 0.993494 0.204245
806 1 0.156142 0.0393385 0.197108
807 1 0.154976 0.998094 0.248765
808 1 0.10933 0.0518947 0.240534
809 1 0.205162 0.984503 0.194956
810 1 0.25639 0.0489452 0.195903
811 1 0.246954 0.0107788 0.247551
812 1 0.195425 0.0525783 0.246363
813 1 0.298364 0.998345 0.197104
814 1 0.351759 0.0539489 0.198606
815 1 0.346379 0.000392865 0.24591
816 1 0.303072 0.0515206 0.246588
817 1 0.398053 -3.17908e-06 0.193076
818 1 0.446407 0.0443556 0.201733
819 1 0.449918 0.999866 0.253604
820 1 0.391626 0.0504629 0.254145
821 1 0.496016 0.99827 0.198365
822 1 0.548237 0.0493307 0.191924
823 1 0.549935 0.00593533 0.252388
824 1 0.502516 0.0561986 0.245484
825 1 0.594215 0.993329 0.203969
826 1 0.654702 0.045098 0.19763
827 1 0.649245 0.989592 0.247227
828 1 0.606249 0.047398 0.247188
829 1 0.694416 0.984395 0.198234
830 1 0.745204 0.0444721 0.186655
831 1 0.746155 0.993912 0.246102
832 1 0.706313 0.0408703 0.242917
833 1 0.796644 0.000732865 0.195133
834 1 0.842877 0.0501461 0.207917
835 1 0.843686 0.995338 0.246966
836 1 0.790768 0.0511814 0.252681
837 1 0.896916 0.00152279 0.201049
838 1 0.942319 0.0450122 0.203652
839 1 0.948729 0.997236 0.252096
840 1 0.893647 0.0443736 0.252915
841 1 0.00842625 0.096094 0.189667
842 1 0.0514546 0.151784 0.196333
843 1 0.0468839 0.100833 0.249754
844 1 0.997507 0.1418 0.242825
845 1 0.110066 0.0939819 0.188679
846 1 0.152632 0.147528 0.207973
847 1 0.154269 0.0990525 0.244672
848 1 0.0971999 0.140886 0.243136
849 1 0.205394 0.101184 0.191269
850 1 0.258564 0.148337 0.193242
851 1 0.254138 0.09658 0.247588
852 1 0.198724 0.145238 0.252038
853 1 0.302953 0.100781 0.198722
854 1 0.345438 0.14932 0.202921
855 1 0.349586 0.100921 0.250975
856 1 0.298944 0.149954 0.249303
857 1 0.392517 0.106575 0.197193
858 1 0.453915 0.149924 0.190349
859 1 0.450659 0.102426 0.237357
860 1 0.405217 0.14903 0.246257
861 1 0.49956 0.10262 0.193457
862 1 0.551173 0.145771 0.192977
863 1 0.556258 0.0989115 0.236537
864 1 0.505248 0.143207 0.24667
865 1 0.602274 0.0931949 0.192141
866 1 0.650458 0.149369 0.205106
867 1 0.654136 0.0902256 0.246242
868 1 0.604287 0.151178 0.24739
869 1 0.699335 0.0911441 0.196706
870 1 0.746247 0.139847 0.196908
871 1 0.743177 0.0939354 0.253912
872 1 0.700905 0.146594 0.247476
873 1 0.792966 0.0977585 0.204279
874 1 0.84667 0.147691 0.193229
875 1 0.846391 0.0956292 0.252219
876 1 0.794201 0.146431 0.244109
877 1 0.893088 0.0914519 0.200868
878 1 0.943909 0.144649 0.193738
879 1 0.940498 0.0996302 0.249197
880 1 0.897099 0.151103 0.239876
881 1 0.998826 0.187635 0.198279
882 1 0.0474849 0.245231 0.201794
883 1 0.0544353 0.195647 0.243096
884 1 0.9982 0.244314 0.239765
885 1 0.103657 0.19354 0.203613
886 1 0.148597 0.246327 0.201759
887 1 0.147051 0.196384 0.249692
888 1 0.106201 0.252803 0.247794
889 1 0.205562 0.195037 0.203118
890 1 0.253609 0.253415 0.199074
891 1 0.254728 0.203485 0.249453
892 1 0.205546 0.245814 0.245942
893 1 0.304904 0.209502 0.199658