ITEM: TIMESTEP
63500
ITEM: NUMBER OF ATOMS
4000
ITEM: BOX BOUNDS pp pp pp
0.0000000000000000e+00 1.6795961913825074e+01
0.0000000000000000e+00 1.6795961913825074e+01
0.0000000000000000e+00 1.6795961913825074e+01
ITEM: ATOMS id type xs ys zs
1 1 0.905757 0.618611 0.484928
2 1 0.0630812 0.847947 0.160424
3 1 0.88565 0.712595 0.229136
4 1 0.551034 0.910555 0.0196802
5 1 0.461454 0.759871 0.298668
6 1 0.647889 0.624447 0.443881
7 1 0.898114 0.440902 0.688875
8 1 0.411094 0.243154 0.400462
9 1 0.320468 0.25552 0.3251
10 1 0.473388 0.165881 0.373555
11 1 0.244179 0.628408 0.872527
12 1 0.238369 0.483732 0.940505
13 1 0.238189 0.0215846 0.342549
14 1 0.577543 0.549182 0.808894
15 1 0.365886 0.207002 0.059763
16 1 0.476525 0.862704 0.18081
17 1 0.581184 0.4355 0.738027
18 1 0.54761 0.978905 0.923626
19 1 0.580497 0.769831 0.490777
20 1 0.527558 0.139857 0.0985533
21 1 0.540491 0.0853394 0.959364
22 1 0.431063 0.325127 0.154385
23 1 0.809074 0.386379 0.066329
24 1 0.599266 0.982201 0.961607
25 1 0.660346 0.961721 0.949287
26 1 0.935903 0.291144 0.0909237
27 1 0.914462 0.918741 0.221176
28 1 0.498177 0.674883 0.930294
29 1 0.108388 0.648564 0.184266
30 1 0.515433 0.839282 0.965538
31 1 0.262841 0.970929 0.212828
32 1 0.431844 0.0827526 0.192607
33 1 0.012623 0.962463 0.281113
34 1 0.868462 0.247859 0.0579808
35 1 0.204712 0.0785039 0.33366
36 1 0.13521 0.302595 0.580182
37 1 0.324639 0.823493 0.925812
38 1 0.616556 0.936583 0.0552217
39 1 0.267524 0.155616 0.802956
40 1 0.072965 0.0554893 0.33565
41 1 0.856068 0.914236 0.0234012
42 1 0.841342 0.992758 0.515804
43 1 0.995586 0.215807 0.531617
44 1 0.10511 0.587358 0.35459
45 1 0.824984 0.0644634 0.8032
46 1 0.794314 0.417869 0.410673
47 1 0.431102 0.696856 0.191841
48 1 0.0821204 0.517238 0.181537
49 1 0.207498 0.181023 0.671442
50 1 0.645981 0.756677 0.442797
51 1 0.6166 0.532336 0.013071
52 1 0.3551 0.13007 0.371894
53 1 0.384671 0.192648 0.347833
54 1 0.998781 0.57504 0.862347
55 1 0.510291 0.212286 0.996131
56 1 0.263569 0.198136 0.388192
57 1 0.293151 0.350045 0.601511
58 1 0.570462 0.50276 0.911108
59 1 0.887586 0.335673 0.54423
60 1 0.422359 0.225848 0.30405
61 1 0.100064 0.784902 0.988837
62 1 0.84381 0.249594 0.424304
63 1 0.491815 0.998408 0.170809
64 1 0.544735 0.134698 0.239454
65 1 0.383132 0.461499 0.965668
66 1 0.593038 0.863618 0.0292999
67 1 0.0423761 0.607345 0.124954
68 1 0.982177 0.44154 0.213265
69 1 0.303174 0.0318968 0.0605382
70 1 0.446906 0.0864071 0.814354
71 1 0.518343 0.0408628 0.143119
72 1 0.285801 0.162264 0.0732268
73 1 0.570679 0.138433 0.923069
74 1 0.407325 0.861465 0.27067
75 1 0.608465 0.614308 0.859622
76 1 0.77564 0.689432 0.193571
77 1 0.442943 0.41159 0.226139
78 1 0.828215 0.490144 0.589624
79 1 0.806839 0.980913 0.993562
80 1 0.172884 0.254846 0.0137218
81 1 0.0881944 0.265068 0.921448
82 1 0.944419 0.612295 0.817974
83 1 0.229993 0.781544 0.887712
84 1 0.259945 0.262603 0.859682
85 1 0.88607 0.227825 0.895265
86 1 0.932676 0.233561 0.0899334
87 1 0.740886 0.364499 0.929804
88 1 0.279489 0.0662579 0.839157
89 1 0.56034 0.823441 0.468283
90 1 0.876761 0.994732 0.231733
91 1 0.0657722 0.0235693 0.772978
92 1 0.0736956 0.686176 0.921844
93 1 0.537837 0.930352 0.621878
94 1 0.998655 0.0261838 0.777883
95 1 0.27568 0.548022 0.813056
96 1 0.487964 0.10742 0.152049
97 1 0.214358 0.290912 0.0383375
98 1 0.519939 0.966542 0.293435
99 1 0.39664 0.0720024 0.36373
100 1 0.902707 0.0229125 0.661543
101 1 0.720178 0.185703 0.534822
102 1 0.294614 0.944092 0.383783
103 1 0.845611 0.278349 0.171253
104 1 0.357303 0.0480561 0.900962
105 1 0.994714 0.0118142 0.589771
106 1 0.958305 0.497378 0.466992
107 1 0.535782 0.803253 0.533248
108 1 0.00013458 0.135166 0.0988027
109 1 0.22519 0.934077 0.629737
110 1 0.742269 0.910198 0.27628
111 1 0.576617 0.90953 0.916016
112 1 0.448351 0.0799335 0.114
113 1 0.435419 0.0437812 0.26328
114 1 0.690728 0.379258 0.669462
115 1 0.561587 0.188295 0.138928
116 1 0.341086 0.54341 0.478654
117 1 0.272234 0.66753 0.0285585
118 1 0.558325 0.14665 0.560662
119 1 0.919595 0.878772 0.273848
120 1 0.628407 0.518361 0.920393
121 1 0.736284 0.49791 0.086051
122 1 0.0941328 0.784628 0.18198
123 1 0.0295933 0.606058 0.291913
124 1 0.369461 0.719639 0.839573
125 1 0.365436 0.420024 0.16267
126 1 0.303329 0.286365 0.438938
127 1 0.0197913 0.867405 0.71552
128 1 0.641646 0.839809 0.792066
129 1 0.717801 0.299496 0.507354
130 1 0.746905 0.591753 0.22821
131 1 0.195382 0.375179 0.367922
132 1 0.226739 0.72812 0.0626709
133 1 0.115507 0.98064 0.806012
134 1 0.0848058 0.618699 0.819855
135 1 0.431728 0.532563 0.992691
136 1 0.386656 0.83232 0.681671
137 1 0.337837 0.220906 0.966593
138 1 0.211651 0.872723 0.256861
139 1 0.710798 0.455491 0.991857
140 1 0.872002 0.974703 0.643771
141 1 0.0285134 0.168549 0.496087
142 1 0.664139 0.100169 0.085892
143 1 0.00325719 0.281717 0.393947
144 1 0.787097 0.222577 0.595013
145 1 0.868565 0.251845 0.997079
146 1 0.838868 0.711414 0.094958
147 1 0.0768809 0.315108 0.881622
148 1 0.451406 0.320167 0.856954
149 1 0.831032 0.369104 0.432642
150 1 0.803805 0.622541 0.0656234
151 1 0.787541 0.8409 0.152003
152 1 0.661095 0.629776 0.169125
153 1 0.630838 0.905663 0.524695
154 1 0.190309 0.202518 0.0774444
155 1 0.600107 0.19498 0.331055
156 1 0.922887 0.948908 0.746755
157 1 0.714932 0.203913 0.985143
158 1 0.101945 0.130718 0.600024
159 1 0.302168 0.157628 0.964027
160 1 0.308538 0.0639053 0.181415
161 1 0.942243 0.347639 0.933172
162 1 0.0250431 0.368099 0.0183746
163 1 0.0474581 0.284566 0.143833
164 1 0.887219 0.852157 0.826108
165 1 0.764805 0.702217 0.0354942
166 1 0.48321 0.84524 0.0578222
167 1 0.978449 0.237765 0.454673
168 1 0.184262 0.731831 0.599404
169 1 0.838099 0.540051 0.144581
170 1 0.28067 0.691641 0.439841
171 1 0.485773 0.541408 0.239006
172 1 0.194439 0.455403 0.214443
173 1 0.110362 0.682379 0.845369
174 1 0.986251 0.654806 0.137287
175 1 0.307437 0.40598 0.372678
176 1 0.112199 0.95851 0.702094
177 1 0.120072 0.66209 0.789228
178 1 0.744335 0.725252 0.153079
179 1 0.549471 0.527019 0.635011
180 1 0.964745 0.522096 0.393516
181 1 0.141552 0.73897 0.342651
182 1 0.813787 0.107865 0.702773
183 1 0.156888 0.409479 0.243034
184 1 0.470919 0.6154 0.804077
185 1 0.709682 0.67048 0.528606
186 1 0.0266657 0.284646 0.457769
187 1 0.476664 0.422188 0.666467
188 1 0.173548 0.255902 0.197352
189 1 0.745004 0.623167 0.0917956
190 1 0.454585 0.667168 0.0782484
191 1 0.687281 0.148748 0.623284
192 1 0.878353 0.552563 0.501788
193 1 0.594829 0.193753 0.0723809
194 1 0.840487 0.551729 0.8525
195 1 0.138978 0.476502 0.319882
196 1 0.858024 0.393693 0.925122
197 1 0.531353 0.1323 0.420676
198 1 0.214809 0.636107 0.920966
199 1 0.299279 0.564144 0.571926
200 1 0.67469 0.411181 0.385606
201 1 0.196508 0.321795 0.168101
202 1 0.280059 0.647359 0.222528
203 1 0.156365 0.436238 0.942124
204 1 0.16406 0.423122 0.176292
205 1 0.455202 0.607663 0.641469
206 1 0.430372 0.374067 0.00961012
207 1 0.0118034 0.826926 0.356847
208 1 0.129566 0.822575 0.919947
209 1 0.157225 0.240798 0.39202
210 1 0.36484 0.905836 0.22702
211 1 0.0785999 0.136126 0.158208
212 1 0.873429 0.854978 0.247462
213 1 0.707377 0.00105637 0.95363
214 1 0.909076 0.784878 0.00597597
215 1 0.135175 0.101411 0.985827
216 1 0.0717437 0.657644 0.0999646
217 1 0.439163 0.619057 0.160911
218 1 0.703761 0.580982 0.267908
219 1 0.189372 0.888859 0.315339
220 1 0.338577 0.85256 0.292299
221 1 0.262697 0.676778 0.911211
222 1 0.318978 0.785324 0.706386
223 1 0.634626 0.699829 0.36381
224 1 0.350228 0.699739 0.784366
225 1 0.449213 0.939441 0.968114
226 1 0.404303 0.160549 0.797085
227 1 0.321452 0.938962 0.175612
228 1 0.112052 0.339609 1.00167
229 1 0.284017 0.269574 0.772955
230 1 0.313663 0.844037 0.165168
231 1 0.938362 0.454468 0.96137
232 1 0.208754 0.203777 0.418803
233 1 0.824588 0.894055 0.285482
234 1 0.0391054 0.27345 0.296242
235 1 0.0143271 0.285648 0.867891
236 1 0.594012 0.325347 0.0948393
237 1 0.825188 0.188899 0.411298
238 1 0.562981 0.668086 0.82985
239 1 0.762027 0.239433 0.93975
240 1 0.68063 0.518388 0.0378684
241 1 0.657012 0.959228 0.141828
242 1 0.377554 0.876497 0.80046
243 1 0.616711 0.768168 0.5871
244 1 0.243933 0.685378 0.277058
245 1 0.900098 0.641643 0.869836
246 1 0.885987 0.574153 0.818027
247 1 0.192813 0.893102 0.865312
248 1 0.903699 0.785908 0.921518
249 1 0.0993134 0.361321 0.205369
250 1 0.740301 0.621599 0.934943
251 1 0.401943 0.67437 0.79405
252 1 0.781593 0.942727 0.0847822
253 1 0.326769 0.0993712 0.431391
254 1 0.0583931 0.293352 0.689117
255 1 0.312988 0.292007 0.276481
256 1 0.32583 0.784582 0.0714102
257 1 0.271672 0.569383 0.150859
258 1 0.774025 0.450257 0.605364
259 1 0.312023 0.612226 0.120277
260 1 0.22619 0.639865 0.527414
261 1 0.275733 0.456134 0.10848
262 1 0.730026 0.523678 0.182224
263 1 0.267182 0.823922 0.379359
264 1 0.0786384 0.537798 0.976313
265 1 0.508538 0.392961 0.147976
266 1 0.41364 0.554394 0.651724
267 1 0.490585 0.36904 0.862915
268 1 0.665817 0.0787422 0.145667
269 1 0.312718 0.00606187 0.125052
270 1 0.251702 0.815518 0.00141419
271 1 0.623582 0.511313 0.478538
272 1 0.289732 0.261732 0.228312
273 1 0.149777 0.415324 0.722728
274 1 0.581169 0.349664 0.0437038
275 1 0.273077 0.132238 0.519995
276 1 0.716077 0.796262 0.263763
277 1 0.849852 0.432527 0.0528978
278 1 0.914091 0.699617 0.723685
279 1 0.49681 0.569376 0.45689
280 1 0.114513 0.99376 0.103134
281 1 0.698926 0.814309 0.56704
282 1 0.0241235 0.616603 0.825021
283 1 0.713355 0.941633 0.926242
284 1 0.682044 0.0331757 0.461615
285 1 0.0341247 0.585373 0.53624
286 1 0.943928 0.485646 0.581539
287 1 0.387646 0.235486 0.219045
288 1 0.0180586 0.517733 0.688439
289 1 0.648249 0.725405 0.188571
290 1 0.630251 0.142191 0.957673
291 1 0.275246 0.878378 0.524593
292 1 0.538251 0.191909 0.521173
293 1 0.449646 0.776265 0.361691
294 1 0.576755 0.739105 0.017936
295 1 0.380111 0.542168 0.333846
296 1 0.0841181 0.786948 0.897857
297 1 0.68829 0.749505 0.906268
298 1 0.593479 0.93604 0.354179
299 1 0.36618 0.0203514 0.332709
300 1 0.81139 0.705654 0.602921
301 1 0.300394 0.414509 0.581328
302 1 0.577689 0.383723 0.235219
303 1 0.656476 0.974546 0.389502
304 1 0.895843 0.167867 0.513216
305 1 0.449518 0.634619 0.942006
306 1 0.634401 0.601197 0.565398
307 1 0.56236 0.499944 0.159375
308 1 0.451185 0.0612988 0.872427
309 1 0.40462 0.712691 0.728139
310 1 0.644877 0.00855876 0.585443
311 1 0.147987 0.676222 0.335861
312 1 0.16518 0.523103 0.239794
313 1 0.861836 0.601277 0.876826
314 1 0.00992058 0.71496 0.599734
315 1 0.434186 0.929388 0.403404
316 1 0.734506 0.297889 0.424738
317 1 0.732581 0.886947 0.871149
318 1 0.537392 0.72441 0.815775
319 1 0.152331 0.401816 0.828137
320 1 0.388072 0.776272 0.0115467
321 1 0.106885 0.948038 0.339525
322 1 0.643909 0.833721 0.25482
323 1 0.392516 0.404202 0.430339
324 1 0.157147 0.888942 0.238075
325 1 0.902559 0.944091 0.293102
326 1 0.236441 0.910019 0.564019
327 1 0.11159 0.805018 0.772735
328 1 0.936063 0.825288 0.289943
329 1 0.623729 0.759276 0.868977
330 1 0.856468 0.42781 0.511404
331 1 0.413689 0.846391 0.74361
332 1 0.297907 0.180225 0.683173
333 1 0.780106 0.734643 0.969039
334 1 0.871137 0.846379 0.671317
335 1 0.798436 0.0787999 0.208223
336 1 0.0957211 0.925139 0.774132
337 1 0.804817 0.377425 0.948352
338 1 0.21553 0.927402 0.17226
339 1 0.463929 0.46102 0.609305
340 1 0.928622 0.00528281 0.278807
341 1 0.335265 0.550259 0.287305
342 1 0.465603 0.844855 0.915592
343 1 0.637559 0.592486 0.226444
344 1 0.494423 0.0532017 0.799889
345 1 0.924586 0.678138 0.992958
346 1 0.326779 0.662894 0.938331
347 1 0.579335 0.236228 0.0290575
348 1 0.855121 0.199217 0.55415
349 1 0.372574 0.738424 0.506102
350 1 0.677458 0.691461 0.148318
351 1 0.83306 0.945953 0.312392
352 1 0.969744 0.862392 0.564542
353 1 0.25724 0.829338 0.78177
354 1 0.570046 0.828204 0.665503
355 1 0.947392 0.674684 0.814398
356 1 0.64359 0.194603 0.285037
357 1 0.486453 0.2565 0.387493
358 1 0.319416 0.439168 0.433846
359 1 0.00775823 0.503593 0.984437
360 1 0.0493561 0.417685 0.117495
361 1 0.323265 0.533687 0.143854
362 1 0.0573695 0.344546 0.74782
363 1 0.844485 0.879536 0.859902
364 1 0.855843 0.267809 0.940254
365 1 0.130878 0.875408 0.317145
366 1 0.1043 0.894913 0.695877
367 1 0.0777485 0.958616 0.286679
368 1 0.875994 0.118507 0.337689
369 1 0.343735 0.118174 0.889457
370 1 0.00438034 0.601238 0.712433
371 1 0.339512 0.71359 0.0615056
372 1 0.879626 0.332838 0.896992
373 1 0.50082 0.82743 0.12879
374 1 0.745418 0.730227 0.683093
375 1 0.222048 0.550111 0.128035
376 1 0.194196 0.758745 0.37248
377 1 0.217222 0.719918 0.748627
378 1 0.278608 0.997142 0.966119
379 1 0.322173 0.477249 0.385092
380 1 0.523327 0.750517 0.0401195
381 1 0.804487 0.913439 0.956919
382 1 0.443705 0.998193 0.974871
383 1 0.0587329 0.0913927 0.648565
384 1 0.893517 0.125338 0.0409173
385 1 0.681327 0.196587 0.0329025
386 1 0.519075 0.656685 0.0438128
387 1 0.232451 0.936564 0.859882
388 1 0.32261 0.092524 0.506402
389 1 0.179595 0.101192 0.647268
390 1 0.888874 0.315197 0.0562157
391 1 0.141445 0.951738 0.856502
392 1 0.16998 0.924071 0.574714
393 1 0.282041 0.64628 0.158403
394 1 0.723387 0.353381 0.71372
395 1 0.468434 0.394111 0.325352
396 1 0.942075 0.227852 0.963293
397 1 0.104446 0.655953 0.529172
398 1 0.272586 0.529614 0.279589
399 1 0.442428 0.219095 0.242687
400 1 0.779887 0.895369 0.902025
401 1 0.916507 0.0367621 0.881101
402 1 0.36764 0.133552 0.658332
403 1 0.674734 0.655031 0.0900053
404 1 0.579878 0.485544 0.0441046
405 1 0.605177 0.138829 0.0813445
406 1 0.771792 0.103333 0.0322541
407 1 0.499048 0.699577 0.290402
408 1 0.66685 0.917653 0.409773
409 1 0.86833 0.0824843 0.225277
410 1 0.101805 0.4933 0.0510214
411 1 0.18837 0.957372 0.528331
412 1 0.371249 0.139347 0.435973
413 1 0.401346 0.00498402 0.0229078
414 1 0.382978 0.802231 0.091976
415 1 0.785492 0.327152 0.434054
416 1 0.408243 0.208911 0.130918
417 1 0.326523 0.459263 0.807939
418 1 0.169589 0.573307 0.126822
419 1 0.748701 0.764199 0.583584
420 1 0.352526 0.494334 0.713669
421 1 0.503187 0.518576 0.951596
422 1 0.43758 0.118889 0.363311
423 1 0.9214 0.284713 0.920015
424 1 0.572743 0.0561828 0.353255
425 1 0.986327 0.138057 0.293628
426 1 0.599583 0.0859264 0.270431
427 1 0.666954 0.550244 0.358598
428 1 0.272404 0.0391555 0.0101474
429 1 0.702025 0.720819 0.00941757
430 1 0.52639 0.233855 0.125058
431 1 0.78853 0.851117 0.967369
432 1 0.506224 0.418118 0.62263
433 1 0.0637155 0.918104 0.528376
434 1 0.905073 0.829338 0.617593
435 1 0.955243 0.290339 0.430828
436 1 0.97327 0.245795 0.27985
437 1 0.205691 0.00733376 0.235901
438 1 0.474872 0.541233 0.771581
439 1 0.140424 0.623114 0.829345
440 1 0.269699 0.754487 0.478262
441 1 0.813055 0.188961 0.224524
442 1 0.242764 0.00810442 0.287539
443 1 0.84117 0.123964 0.255447
444 1 0.233679 0.348939 0.593412
445 1 0.0520891 0.214936 0.555899
446 1 0.122833 0.214338 0.00443141
447 1 0.64293 0.20277 0.645402
448 1 0.678771 0.138532 0.539794
449 1 0.995623 0.214628 0.0685717
450 1 0.272624 0.624872 0.635506
451 1 0.627615 0.693586 0.798018
452 1 0.477227 0.919588 0.164472
453 1 0.310131 0.322611 0.145503
454 1 0.0510359 0.20748 0.772786
455 1 0.184219 0.623925 0.297338
456 1 0.670587 0.988818 0.817737
457 1 0.95087 0.0712899 0.371099
458 1 0.502895 0.271343 0.0785137
459 1 0.625937 0.0516664 0.0716792
460 1 0.900575 0.241221 0.56491
461 1 0.082817 0.870774 0.489184
462 1 0.242673 0.161976 0.0214587
463 1 0.194946 0.774317 0.646669
464 1 0.944935 0.663553 0.92783
465 1 0.870229 0.0817168 0.694825
466 1 0.837206 0.401059 0.167945
467 1 0.97371 0.851816 0.891927
468 1 0.431691 0.23613 0.630506
469 1 0.0443683 0.238546 0.429026
470 1 0.92616 0.889559 0.434308
471 1 0.940341 0.300361 0.147481
472 1 0.842791 0.345074 0.232461
473 1 0.929862 0.193788 0.844849
474 1 0.463457 0.277729 0.559958
475 1 0.586661 0.990465 0.326463
476 1 0.828372 0.971966 0.848211
477 1 0.538657 0.0306145 0.0764479
478 1 0.254011 0.34813 0.319194
479 1 0.790678 0.235805 0.656182
480 1 0.537281 0.483802 0.271706
481 1 0.246748 0.329473 0.93777
482 1 0.823888 0.203479 0.0436875
483 1 0.184635 0.90105 0.09291
484 1 0.448185 0.0341368 0.157189
485 1 0.0309495 0.347765 0.485357
486 1 0.984439 0.356756 0.857179
487 1 0.888273 0.326499 0.113915
488 1 0.960034 0.841983 0.0176334
489 1 0.931155 1.00102 0.778706
490 1 0.96251 0.370482 0.743336
491 1 0.652443 0.853479 0.53323
492 1 0.34332 0.367815 0.865344
493 1 0.0552542 0.166909 0.444923
494 1 0.361273 0.896338 0.731516
495 1 0.351813 0.987052 0.445237
496 1 0.464667 0.715108 0.90332
497 1 0.272469 0.744626 0.10317
498 1 0.26205 0.162406 0.439494
499 1 0.0129897 0.925992 0.0630985
500 1 0.500584 0.82521 0.719938
501 1 0.583654 0.863435 0.276601
502 1 0.231759 0.164349 0.182458
503 1 0.460293 0.483505 0.976273
504 1 0.656282 0.927072 0.201334
505 1 0.729689 0.498078 0.601385
506 1 0.185406 0.342349 0.53642
507 1 0.244544 0.583751 0.526901
508 1 0.493364 0.119039 0.930227
509 1 0.541941 0.550067 0.25902
510 1 0.245927 0.859896 0.201532
511 1 0.114439 0.966543 0.169837
512 1 0.135433 0.580006 0.25177
513 1 0.625002 0.346338 0.238052
514 1 0.378005 0.126642 0.569801
515 1 0.162825 0.840627 0.281225
516 1 0.803495 0.453815 0.367182
517 1 0.566205 0.30706 0.848786
518 1 0.64598 0.889035 0.655539
519 1 0.11072 0.365775 0.262427
520 1 0.378223 0.761498 0.756987
521 1 0.601883 0.228951 0.124398
522 1 0.251753 0.307558 0.393254
523 1 0.258038 0.206818 0.969562
524 1 0.156971 0.199952 0.883619
525 1 0.0128723 0.807137 0.867083
526 1 0.458292 0.213314 0.96919
527 1 0.0469384 0.781715 0.971795
528 1 0.0150343 0.187016 0.814453
529 1 0.968049 0.461192 0.342953
530 1 0.4489 0.465624 0.921186
531 1 0.33577 0.186867 0.129989
532 1 0.16159 0.226669 0.763328
533 1 0.621734 0.453616 0.607419
534 1 0.777163 0.851391 0.534104
535 1 0.15445 0.587304 0.0491661
536 1 0.232583 0.160163 0.346092
537 1 0.349778 0.250039 0.78203
538 1 0.375548 0.631936 0.965496
539 1 0.141052 0.798817 0.701095
540 1 0.387299 0.371781 0.101686
541 1 0.508479 0.588303 0.988491
542 1 0.389444 0.576508 0.949632
543 1 0.664572 0.220532 0.592074
544 1 0.0550238 0.47199 0.221984
545 1 0.269447 0.453224 0.38579
546 1 0.3653 0.519678 0.537198
547 1 0.315784 0.711173 0.883276
548 1 0.88685 0.979589 0.873065
549 1 0.563119 0.875719 0.963563
550 1 0.694925 0.582354 0.95326
551 1 0.934098 0.371213 0.519864
552 1 0.0265327 0.271714 0.922206
553 1 0.880305 0.376736 0.0373818
554 1 0.695749 0.575292 0.564517
555 1 0.922814 0.390567 0.213347
556 1 0.165777 0.041807 0.974029
557 1 0.0968616 0.523396 0.894497
558 1 0.779392 0.171972 0.540435
559 1 0.917585 0.943846 0.0303531
560 1 0.896231 0.207228 0.328266
561 1 0.738924 0.00360718 0.633761
562 1 0.0814035 0.372498 0.148895
563 1 0.11013 0.646493 0.935801
564 1 0.441874 0.78616 0.245425
565 1 0.902847 0.661784 0.137912
566 1 0.863182 0.922059 0.442782
567 1 0.479429 0.273811 0.617079
568 1 0.549554 0.596149 0.644406
569 1 0.888285 0.0235113 0.723339
570 1 0.895606 0.500635 0.837353
571 1 0.108063 0.874729 0.991506
572 1 0.310414 0.838796 0.85619
573 1 0.156559 0.530094 0.413499
574 1 0.394559 0.306684 0.564731
575 1 0.211019 0.663778 0.330954
576 1 0.076548 0.922059 0.957834
577 1 0.211731 0.548013 0.0672027
578 1 0.113244 0.186159 0.776129
579 1 0.272976 0.459649 0.0356607
580 1 0.669072 0.926906 0.815613
581 1 0.325579 0.554085 0.773867
582 1 0.616014 0.398243 0.0102758
583 1 0.693497 0.260275 0.027403
584 1 0.986681 0.582313 0.186495
585 1 0.476008 0.540385 0.838283
586 1 0.0275407 0.384091 0.937548
587 1 0.158639 1.00038 0.350781
588 1 0.997765 0.145417 0.223242
589 1 0.237589 0.592461 0.740008
590 1 0.983538 0.361573 0.795905
591 1 0.55763 0.179777 0.863521
592 1 0.736918 0.557468 0.901415
593 1 0.563068 0.182588 0.680916
594 1 0.135818 0.0788952 0.188876
595 1 0.294275 0.419935 0.0668797
596 1 0.0341931 0.102615 0.264821
597 1 0.0109946 0.940257 0.960038
598 1 0.331009 0.790011 0.130635
599 1 0.932961 0.030818 0.139035
600 1 0.804124 0.707985 0.750727
601 1 0.118719 0.226525 0.173518
602 1 0.208151 0.0757228 0.509546
603 1 0.158486 0.00811538 0.55831
604 1 0.544783 0.794783 0.0952777
605 1 0.317551 0.0887403 0.331092
606 1 0.654196 0.4172 0.88599
607 1 0.583741 0.68389 0.703861
608 1 0.341699 0.981635 0.833776
609 1 0.858965 0.603741 0.0619221
610 1 0.990559 0.385597 0.265877
611 1 0.72785 0.885999 0.32475
612 1 0.287135 0.522616 0.194871
613 1 0.184255 0.00915582 0.10253
614 1 0.217365 0.621242 0.0396866
615 1 0.477931 0.944472 0.238127
616 1 0.0981518 0.585771 0.188351
617 1 0.503015 0.530458 0.893733
618 1 0.247612 0.470788 0.648891
619 1 0.358851 0.735116 0.564813
620 1 0.990774 0.00814497 0.255718
621 1 0.679597 0.493953 0.262453
622 1 0.410709 0.332184 0.442122
623 1 0.887282 0.580015 0.117606
624 1 0.75868 0.351684 0.656731
625 1 0.13818 0.802829 0.597917
626 1 0.255139 0.431284 0.977968
627 1 0.124527 0.438942 0.872708
628 1 0.123845 0.467999 0.261383
629 1 0.766698 0.0170999 0.413989
630 1 0.396001 0.849864 0.325486
631 1 0.872513 0.939024 0.162833
632 1 0.756005 0.595105 0.0293803
633 1 0.0808211 0.152828 0.356804
634 1 0.461365 0.463925 0.173375
635 1 0.845213 0.42672 0.228052
636 1 0.751732 0.685491 0.308614
637 1 0.638834 0.10808 0.509678
638 1 0.544264 0.816362 0.0309039
639 1 0.786412 0.00643835 0.86587
640 1 0.345995 0.952036 0.319911
641 1 0.584976 0.681411 0.762664
642 1 0.749789 0.535539 0.553688
643 1 0.557456 0.639455 0.890025
644 1 0.931724 0.39869 0.135617
645 1 0.948859 0.952619 0.565743
646 1 0.390969 0.524304 0.22542
647 1 0.63312 0.101164 0.0288413
648 1 0.729341 0.953131 0.397781
649 1 0.00952036 0.930828 0.851228
650 1 0.0651279 0.323032 0.950181
651 1 0.313071 0.771586 0.780505
652 1 0.779912 0.000296065 0.11427
653 1 0.655609 0.477348 0.880153
654 1 0.918368 0.187124 0.26063
655 1 0.259511 0.702509 0.332048
656 1 0.355375 0.564671 0.858148
657 1 0.269512 0.958667 0.141772
658 1 0.860857 0.584642 0.403367
659 1 0.479067 0.252823 0.861504
660 1 0.559957 0.708197 0.90613
661 1 0.217297 0.617732 0.607019
662 1 0.99369 0.723947 0.385094
663 1 0.655953 0.995446 0.27673
664 1 0.225787 0.773725 0.955498
665 1 0.791196 0.516305 0.0901334
666 1 0.96367 0.791032 0.176679
667 1 0.48445 0.357501 0.382004
668 1 0.154275 0.59394 0.40157
669 1 0.611414 0.281388 0.00548621
670 1 0.534166 0.599809 0.48335
671 1 0.598628 0.427527 0.160349
672 1 0.945677 0.128009 0.134719
673 1 0.827305 0.756093 0.575357
674 1 0.0634059 0.707883 0.157781
675 1 0.46028 0.282281 0.907773
676 1 0.383359 0.186434 0.261967
677 1 0.628037 0.463794 0.0248951
678 1 0.964953 0.780665 0.894414
679 1 0.0043694 0.802132 0.0335044
680 1 0.107458 0.808658 0.103681
681 1 0.351591 0.738299 0.620477
682 1 0.94216 0.824902 0.136768
683 1 0.185361 0.0317656 0.748769
684 1 0.929548 0.181136 0.190632
685 1 0.937509 0.750099 0.0760662
686 1 0.964262 0.454114 0.528073
687 1 0.869835 0.643044 0.447971
688 1 0.285236 0.932386 0.798362
689 1 0.309418 0.230725 0.0663603
690 1 0.203856 0.0858434 0.416843
691 1 0.928063 0.0496236 0.496249
692 1 0.75977 0.986326 0.759111
693 1 0.328104 0.599279 0.732179
694 1 0.465269 0.0780981 0.0157919
695 1 0.944993 0.0584806 0.764744
696 1 0.408779 0.863132 0.474881
697 1 0.837333 0.251378 0.2262
698 1 0.0359796 0.686542 0.726417
699 1 0.753412 0.794246 0.206037
700 1 0.861344 0.0921082 0.391301
701 1 0.338384 0.855268 0.218885
702 1 0.0296287 0.165759 0.936448
703 1 0.558652 0.544513 0.483706
704 1 0.72741 0.769946 0.860133
705 1 0.106431 0.924069 0.123563
706 1 0.561146 0.665084 0.457312
707 1 0.803272 0.165385 0.290838
708 1 0.839418 0.874239 0.556073
709 1 0.309777 0.335449 0.33628
710 1 0.890563 0.690764 0.842033
711 1 0.206099 0.195491 0.802679
712 1 0.884888 0.836228 0.885651
713 1 0.375035 0.677397 0.586586
714 1 0.00932591 0.520284 0.757207
715 1 0.476745 0.715326 0.341033
716 1 0.210576 0.63453 0.668623
717 1 0.309237 0.824031 0.995185
718 1 0.396712 0.0565104 0.665521
719 1 0.763195 0.12966 0.419636
720 1 0.973511 0.623122 0.755442
721 1 0.891762 0.979096 0.420634
722 1 0.388398 0.691787 0.908862
723 1 0.427864 0.740357 0.142647
724 1 0.529137 0.652753 0.309525
725 1 0.0542644 0.0945697 0.911989
726 1 0.527676 0.398408 0.383504
727 1 0.152355 0.0779703 0.447753
728 1 0.937099 0.345267 0.037828
729 1 0.47544 0.483298 0.410305
730 1 0.360578 0.798383 0.849078
731 1 0.230682 0.439581 0.172018
732 1 0.772379 0.578151 0.323428
733 1 0.105935 0.478814 0.415037
734 1 0.724988 0.944828 0.844384
735 1 0.167377 0.934185 0.788137
736 1 0.242182 0.0484951 0.952219
737 1 0.990956 0.607644 0.918587
738 1 0.414892 0.134783 0.477051
739 1 0.457259 0.572971 0.105567
740 1 0.345747 0.973062 0.0377961
741 1 0.97823 0.263636 0.715882
742 1 0.640997 0.167946 0.365154
743 1 0.0257722 0.580795 0.408544
744 1 0.583758 0.0197786 0.596077
745 1 0.642897 0.890596 0.453058
746 1 0.589031 0.0850003 0.996739
747 1 0.223969 0.366693 0.217577
748 1 0.029497 0.697025 0.203623
749 1 0.868296 0.337931 0.82062
750 1 0.893309 0.366483 0.30832
751 1 0.817871 0.558917 0.800051
752 1 0.936108 0.483728 0.227074
753 1 0.494254 0.126788 0.313922
754 1 0.00060687 0.29723 0.668106
755 1 0.715659 0.347551 0.455981
756 1 0.895666 0.477794 0.458617
757 1 0.37546 0.709244 0.23542
758 1 0.83774 0.8362 0.943215
759 1 0.482449 0.0549921 0.0707714
760 1 0.801206 0.983807 0.794575
761 1 0.987748 0.459667 0.273079
762 1 0.351403 0.192611 0.200431
763 1 0.0327415 0.793534 0.0855002
764 1 0.755105 0.474928 0.14678
765 1 0.979528 0.0919588 0.81449
766 1 0.2445 0.33619 0.0549306
767 1 0.58024 0.749791 0.764909
768 1 0.979784 0.869983 0.242754
769 1 0.330603 0.96416 0.637362
770 1 0.0387854 0.0229204 0.513852
771 1 0.569079 0.0119732 0.761531
772 1 0.13283 0.240961 0.580644
773 1 0.468866 0.830619 0.29356
774 1 0.0210406 0.465209 0.782586
775 1 0.111797 0.0911844 0.549783
776 1 0.163321 0.960836 0.204186
777 1 0.772117 0.0174181 0.924839
778 1 0.555937 0.861345 0.723091
779 1 0.232091 0.887036 0.376035
780 1 0.659628 0.778922 0.359799
781 1 0.364798 0.518409 0.932517
782 1 0.737244 0.493427 0.296535
783 1 0.474452 0.0662068 0.961725
784 1 0.263294 0.808642 0.146152
785 1 0.796667 0.624463 0.305387
786 1 0.725173 0.262113 0.901917
787 1 0.95514 0.298843 0.21355
788 1 0.505892 0.318292 0.97998
789 1 0.625481 0.37509 0.399438
790 1 0.480207 0.284448 0.233438
791 1 0.295227 0.257204 0.386611
792 1 0.402665 0.895649 0.370198
793 1 0.00680115 0.773789 0.417933
794 1 0.640777 0.98337 0.0018607
795 1 0.221591 0.862446 0.130731
796 1 0.804555 0.536837 0.898384
797 1 0.764664 0.749497 0.903287
798 1 0.792291 0.898881 0.579238
799 1 0.210153 0.926486 0.0253859
800 1 0.487384 0.421932 0.907296
801 1 0.616755 0.796013 0.537846
802 1 0.171753 0.897022 0.153669
803 1 0.305091 0.333778 0.0794031
804 1 0.555422 0.278523 0.977025
805 1 0.520338 0.099796 0.0255209
806 1 0.254982 0.522313 0.0383585
807 1 0.451207 0.479888 0.524309
808 1 0.371972 0.421784 0.0267984
809 1 0.189234 0.472041 0.891178
810 1 0.372671 0.0668388 0.190298
811 1 0.0947593 0.337025 0.625831
812 1 0.187067 0.0338817 0.460425
813 1 0.286769 0.991112 0.472693
814 1 0.473072 0.342422 0.929724
815 1 0.342043 0.488322 0.64848
816 1 0.264881 0.270676 0.105205
817 1 0.467201 0.618842 0.479783
818 1 0.577483 0.165753 0.802379
819 1 0.260955 0.686338 0.497187
820 1 0.0737611 0.934967 0.192255
821 1 0.868452 0.211846 0.378887
822 1 0.196766 0.138112 0.597678
823 1 0.370508 0.761471 0.435645
824 1 0.154656 0.351696 0.202243
825 1 0.725796 0.964882 0.285665
826 1 0.912456 0.791707 0.43911
827 1 0.235535 0.704522 0.160085
828 1 0.516358 0.0456107 0.201638
829 1 0.968875 0.166103 0.499017
830 1 0.0438375 0.898965 0.904679
831 1 0.386798 0.930633 0.160212
832 1 0.774905 0.101278 0.149815
833 1 0.175863 0.177887 0.352888
834 1 0.403304 0.9781 0.74004
835 1 0.0946347 0.493505 0.776337
836 1 0.677126 0.724362 0.52314
837 1 0.583597 0.904885 0.0982136
838 1 0.878919 0.13059 0.445888
839 1 0.963803 0.973827 0.933809
840 1 0.73612 0.871325 0.142375
841 1 0.118685 0.00616587 0.874627
842 1 0.228609 0.0713817 0.617026
843 1 0.147826 0.13616 0.260395
844 1 0.381073 0.698557 0.160501
845 1 0.424364 0.387816 0.288368
846 1 0.137124 0.949141 0.97408
847 1 0.609601 0.840554 0.907318
848 1 0.0938126 0.556173 0.140087
849 1 0.240493 0.188932 0.54979
850 1 0.207626 0.28658 0.117301
851 1 0.515113 0.0798352 0.853631
852 1 0.811535 0.697786 0.256436
853 1 0.0632593 0.974877 0.0666391
854 1 0.637528 0.381343 0.109907
855 1 0.0492075 0.973064 0.139139
856 1 0.286757 0.308294 0.832821
857 1 0.336923 0.340232 0.232842
858 1 0.022493 0.390126 0.0717077
859 1 0.947939 0.724549 0.598007
860 1 0.654144 0.282361 0.609388
861 1 0.876704 0.203767 0.219605
862 1 0.564762 0.349787 0.37648
863 1 0.776359 0.796091 0.335865
864 1 0.51794 0.160535 0.652867
865 1 0.61323 0.366104 0.179697
866 1 0.247925 0.0796265 0.688856
867 1 0.897079 0.1969 0.142997
868 1 0.781208 0.956565 0.362459
869 1 0.0111061 0.979325 0.212164
870 1 0.353984 0.36639 0.1511
871 1 0.820581 0.348611 0.0163046
872 1 0.191425 0.0891097 0.947742
873 1 0.623804 0.171725 0.0209116
874 1 0.824632 0.127112 0.42977
875 1 0.604391 0.692355 0.968781
876 1 0.730903 0.888538 0.757635
877 1 0.630163 0.861641 0.125601
878 1 0.929787 0.876413 0.171251
879 1 0.137105 0.29193 0.037243
880 1 0.946532 0.960224 0.462714
881 1 0.562256 0.492978 0.52678
882 1 0.977099 0.389964 0.976706
883 1 0.406345 0.0163904 0.446086
884 1 0.94618 0.616496 0.220693
885 1 0.678518 0.721227 0.391905
886 1 0.924403 0.155637 0.670493
887 1 0.772514 0.205358 0.822286
888 1 0.593196 0.918263 0.170581
889 1 0.0136638 0.359796 0.331028
890 1 0.8256 0.665046 0.0322043
891 1 0.387524 0.689708 0.0355867
892 1 0.72802 0.381509 0.0413694
893 1 0.961861 0.495642 0.85799
894 1 0.0456814 0.567946 0.795095
895 1 0.703192 0.493099 0.549267
896 1 0.900872 0.907735 0.661266
897 1 0.0756447 0.940612 0.859036
898 1 0.928928 0.200371 0.0111849
899 1 0.581713 0.042454 0.955715
900 1 0.458581 0.392293 0.595823
901 1 0.556494 0.572109 0.373555
902 1 0.237627 0.522262 0.898506
903 1 0.407449 0.0164228 0.202034
904 1 0.541535 0.0399963 0.69461