ITEM: TIMESTEP
68800
ITEM: NUMBER OF ATOMS
4000
ITEM: BOX BOUNDS pp pp pp
0.0000000000000000e+00 1.6795961913825074e+01
0.0000000000000000e+00 1.6795961913825074e+01
0.0000000000000000e+00 1.6795961913825074e+01
ITEM: ATOMS id type xs ys zs
1 1 0.794798 0.62132 0.620932
2 1 0.108403 0.792541 0.168351
3 1 0.844159 0.698151 0.250626
4 1 0.601988 0.720153 0.834415
5 1 0.648522 0.466957 0.288824
6 1 0.869512 0.617209 0.594322
7 1 0.661367 0.180606 0.836541
8 1 0.418341 0.307569 0.0785727
9 1 0.348861 0.253526 0.477425
10 1 0.0984144 0.150335 0.459521
11 1 0.397213 0.782953 0.0785716
12 1 0.358259 0.744932 0.17567
13 1 0.0333054 0.169489 0.422232
14 1 0.191807 0.509761 0.0365373
15 1 0.425233 0.828672 0.110009
16 1 0.525058 0.880525 0.435672
17 1 0.140433 0.374282 0.730903
18 1 0.458144 0.962681 0.0158397
19 1 0.546887 0.733905 0.62444
20 1 0.617697 0.310115 0.0449227
21 1 0.17959 0.871463 0.734576
22 1 0.303496 0.357047 0.318384
23 1 0.68132 0.585207 0.334596
24 1 0.666167 0.143058 0.905275
25 1 0.998779 0.00671851 0.242406
26 1 0.748566 0.324067 0.290241
27 1 0.105617 0.991348 0.287844
28 1 0.407968 0.560333 0.974852
29 1 0.325436 0.553387 0.125833
30 1 0.199907 0.870373 0.853911
31 1 0.498455 0.840984 0.0888472
32 1 0.630007 0.993225 0.225113
33 1 0.872942 0.907188 0.356215
34 1 0.612627 0.998474 0.835113
35 1 0.967581 0.0482444 0.39438
36 1 0.29709 0.26171 0.446632
37 1 0.330799 0.916477 0.00605788
38 1 0.690752 0.878956 0.0227265
39 1 0.382629 0.0259342 0.158701
40 1 0.0345006 0.21883 0.463022
41 1 0.636347 0.0131823 0.445423
42 1 0.824091 0.899907 0.665155
43 1 0.952246 0.453751 0.513009
44 1 0.938346 0.39932 0.149711
45 1 0.702988 0.0170534 0.915638
46 1 0.98454 0.385241 0.442238
47 1 0.418714 0.4995 0.00593886
48 1 0.00689002 0.371645 0.3241
49 1 0.179855 0.21448 0.721033
50 1 0.79493 0.65578 0.283446
51 1 0.553075 0.402601 0.233487
52 1 0.504952 0.243322 0.37318
53 1 0.263824 0.0807405 0.369505
54 1 0.000895644 0.664289 0.813169
55 1 0.144311 0.248006 0.424939
56 1 0.17221 0.403538 0.460439
57 1 0.293166 0.352162 0.570997
58 1 0.453476 0.492638 0.273623
59 1 0.570039 0.546109 0.55214
60 1 0.476451 0.189734 0.331956
61 1 0.948816 0.710276 0.88921
62 1 0.946789 0.576434 0.425849
63 1 0.73679 0.0358949 0.221852
64 1 0.428557 0.283427 0.194402
65 1 0.508448 0.375331 0.927022
66 1 0.495203 0.78762 0.116107
67 1 0.102363 0.480059 0.818014
68 1 0.867236 0.624628 0.222837
69 1 0.205047 0.721953 0.276341
70 1 0.372633 0.0496329 0.882851
71 1 0.308614 0.170669 0.179747
72 1 0.26247 0.840402 0.316292
73 1 0.41676 0.191683 0.905211
74 1 0.459391 0.710071 0.272436
75 1 0.609741 0.481434 0.85571
76 1 0.663841 0.523135 0.163248
77 1 0.316014 0.0963437 0.261063
78 1 0.874995 0.664327 0.692582
79 1 0.984355 0.888578 0.2537
80 1 0.0573421 0.176397 0.168935
81 1 0.846277 0.110738 0.813689
82 1 0.994523 0.556492 0.619384
83 1 0.17558 0.910678 0.687948
84 1 0.389354 0.337341 0.976025
85 1 0.779045 0.385041 0.622881
86 1 0.707873 0.0678428 0.0801944
87 1 0.751904 0.513103 0.076711
88 1 0.109918 0.977303 0.87758
89 1 0.225609 0.684943 0.398729
90 1 0.827948 0.0883579 0.473508
91 1 0.0629372 0.16259 0.679127
92 1 0.0824338 0.63832 0.986938
93 1 0.484791 0.866624 0.957468
94 1 0.193735 0.963357 0.637406
95 1 0.371516 0.885968 0.910304
96 1 0.672136 0.377097 0.149037
97 1 0.158708 0.301766 0.278278
98 1 0.241825 0.0321218 0.420274
99 1 0.168233 0.932315 0.556792
100 1 0.865502 0.0479419 0.452549
101 1 0.645954 0.998781 0.518626
102 1 0.428176 0.951091 0.345383
103 1 0.831774 0.588104 0.172444
104 1 0.16929 0.985135 0.00342269
105 1 0.821709 0.395657 0.851292
106 1 0.153677 0.243789 0.644625
107 1 0.559994 0.680733 0.738602
108 1 0.814664 0.107524 0.263261
109 1 0.48949 0.899091 0.576383
110 1 0.623641 0.779401 0.479387
111 1 0.435543 0.0057599 0.984055
112 1 0.750708 0.0117318 0.390019
113 1 0.37438 0.29537 0.216826
114 1 0.719959 0.273495 0.952601
115 1 0.588353 0.132189 0.290429
116 1 0.152225 0.402733 0.611881
117 1 0.473237 0.388351 0.00837183
118 1 0.299277 0.122609 0.66923
119 1 0.0613117 0.0273471 0.205991
120 1 0.58738 0.699808 0.98456
121 1 0.805558 0.782093 0.15637
122 1 0.202196 0.580872 0.116582
123 1 0.981789 0.65598 0.903709
124 1 0.386374 0.567072 0.692514
125 1 0.523091 0.508057 0.450255
126 1 0.131027 0.490092 0.296249
127 1 0.126304 0.742765 0.770909
128 1 0.856813 0.808502 0.883824
129 1 0.947689 0.447923 0.740243
130 1 0.824021 0.562487 0.399738
131 1 0.209955 0.668388 0.158932
132 1 0.383992 0.646055 0.150806
133 1 0.281587 0.815057 0.885807
134 1 0.870783 0.477208 0.822375
135 1 0.493196 0.43177 0.128403
136 1 0.390934 0.918933 0.870715
137 1 0.532223 0.0573319 0.246661
138 1 0.268694 0.775133 0.405985
139 1 0.874921 0.556956 0.0739702
140 1 0.664486 0.0337418 0.633632
141 1 0.963462 0.384959 0.634771
142 1 0.787635 0.0873442 0.149191
143 1 0.194657 0.183458 0.654589
144 1 0.633996 0.5153 0.543396
145 1 0.992667 0.262474 0.248535
146 1 0.699448 0.884585 0.145536
147 1 0.970365 0.298462 0.96885
148 1 0.294492 0.337435 0.146993
149 1 0.776435 0.42841 0.167008
150 1 0.779049 0.601186 0.315392
151 1 0.819707 0.904405 0.211703
152 1 0.610155 0.804722 0.0256993
153 1 0.560302 0.480758 0.670945
154 1 0.200151 0.303667 0.0212668
155 1 0.654906 0.0682117 0.355954
156 1 0.0191468 0.0269212 0.583405
157 1 0.716681 0.09003 0.00116443
158 1 0.0299683 0.289951 0.640296
159 1 0.452999 0.998364 0.102187
160 1 0.2253 0.1129 0.0141679
161 1 0.801997 0.328701 0.274251
162 1 0.820906 0.629834 0.986463
163 1 0.0590218 0.141967 0.222185
164 1 0.918366 0.724969 0.540041
165 1 0.888411 0.614095 0.130689
166 1 0.60633 0.0954173 0.167103
167 1 0.90231 0.148877 0.204525
168 1 0.977446 0.652419 0.677075
169 1 0.965587 0.678569 0.0465083
170 1 0.0979497 0.389126 0.664928
171 1 0.29537 0.377126 0.198641
172 1 0.143494 0.493683 0.396392
173 1 0.0408675 0.75074 0.85589
174 1 0.979759 0.578654 0.221638
175 1 0.405622 0.406419 0.24051
176 1 0.0993723 0.814397 0.669658
177 1 0.889772 0.553733 0.904588
178 1 0.662811 0.884222 0.267822
179 1 0.373361 0.665719 0.815058
180 1 0.941932 0.760386 0.272136
181 1 0.025139 0.659278 0.367062
182 1 0.59854 0.433585 0.654437
183 1 0.14183 0.272248 0.343714
184 1 0.686744 0.662884 0.0563956
185 1 0.981499 0.871785 0.313386
186 1 0.991107 0.329821 0.472882
187 1 0.364229 0.465004 0.0212971
188 1 0.10265 0.441094 0.925226
189 1 0.906471 0.707396 0.245712
190 1 0.362742 0.588937 0.0163754
191 1 0.479889 0.155148 0.783192
192 1 0.862695 0.755672 0.360035
193 1 0.619566 0.954976 0.970173
194 1 0.967097 0.825515 0.00651826
195 1 0.481478 0.225647 0.187618
196 1 0.764311 0.538803 0.183335
197 1 0.559954 0.282377 0.343322
198 1 0.363734 0.655205 0.653742
199 1 0.35729 0.697883 0.751052
200 1 0.790272 0.890533 0.394276
201 1 0.192688 0.243808 0.890199
202 1 0.974546 0.845987 0.0785795
203 1 0.171843 0.617054 0.0273093
204 1 0.0117708 0.322184 0.0175741
205 1 0.491052 0.340166 0.607448
206 1 0.587115 0.543451 0.0986492
207 1 0.0241817 0.0207822 0.156069
208 1 0.240496 0.713044 0.931221
209 1 0.0393542 0.460301 0.380375
210 1 0.506615 0.803018 0.263343
211 1 0.036789 0.330732 0.580292
212 1 0.882565 0.979855 0.613494
213 1 0.536932 0.847638 0.902339
214 1 0.110929 0.962388 0.768894
215 1 0.76254 0.155524 0.0108557
216 1 0.928584 0.798004 0.220241
217 1 0.217622 0.351162 0.257919
218 1 0.472494 0.103167 0.166432
219 1 0.414627 0.750847 0.224187
220 1 0.469444 0.917365 0.519654
221 1 0.291569 0.846321 0.776807
222 1 0.218711 0.702428 0.625214
223 1 0.738328 0.556606 0.257733
224 1 0.39609 0.729622 0.845492
225 1 0.515105 0.966949 0.0262873
226 1 0.257793 0.992731 0.0253564
227 1 0.426664 0.0677257 0.179993
228 1 0.233274 0.421608 0.0211458
229 1 0.307514 0.241142 0.778527
230 1 0.223934 0.990928 0.358754
231 1 0.689339 0.395341 0.0694692
232 1 0.893557 0.174663 0.259832
233 1 0.989287 0.566755 0.0289486
234 1 0.0323872 0.118617 0.453271
235 1 0.886854 0.174886 0.0267591
236 1 0.805623 0.275012 0.245045
237 1 0.69849 0.344349 0.674327
238 1 0.414124 0.777397 0.891727
239 1 0.630441 0.371525 0.0572841
240 1 0.750924 0.422691 0.0529014
241 1 0.784802 0.768102 0.939923
242 1 0.472879 0.63513 0.798404
243 1 0.752558 0.0910452 0.632434
244 1 0.304455 0.890573 0.325725
245 1 0.985576 0.850853 0.807012
246 1 0.0869017 0.71141 0.84495
247 1 0.212273 0.961688 0.0713701
248 1 0.603891 0.695581 0.930409
249 1 0.240313 0.168076 0.171051
250 1 0.875354 0.639501 0.972725
251 1 0.403163 0.722077 0.788892
252 1 0.956722 0.981364 0.282373
253 1 0.336124 0.931588 0.568175
254 1 0.202936 0.37522 0.816643
255 1 0.319293 0.190984 0.323324
256 1 0.35321 0.371201 0.245559
257 1 0.26536 0.544343 0.211033
258 1 0.609462 0.530054 0.600934
259 1 0.370171 0.292116 0.939564
260 1 0.224954 0.5564 0.337597
261 1 0.2768 0.446149 0.204791
262 1 0.582853 0.487421 0.0697221
263 1 0.243371 0.609827 0.311521
264 1 0.311106 0.548946 0.0147758
265 1 0.543821 0.49213 0.106247
266 1 0.327048 0.570221 0.58038
267 1 0.145691 0.318695 0.0122614
268 1 0.696152 0.979462 0.393027
269 1 0.127762 0.12551 0.153071
270 1 0.420675 0.767532 0.134239
271 1 0.521933 0.152519 0.54904
272 1 0.378723 0.187035 0.070249
273 1 0.485807 0.124172 0.734833
274 1 0.755041 0.320258 0.914478
275 1 0.288468 0.0529326 0.52704
276 1 0.0630695 0.815573 0.455787
277 1 0.83323 0.330054 0.195869
278 1 0.672291 0.548413 0.765347
279 1 0.441251 0.181176 0.392075
280 1 0.268031 0.963053 0.0851364
281 1 0.726201 0.900317 0.49337
282 1 0.159417 0.601729 0.787988
283 1 0.497986 0.956659 0.811145
284 1 0.462654 0.692878 0.505121
285 1 0.641517 0.671982 0.567914
286 1 0.869347 0.7619 0.75704
287 1 0.217785 0.272927 0.363499
288 1 0.173309 0.497593 0.63944
289 1 0.649645 0.624984 0.291842
290 1 0.741091 0.784633 0.114199
291 1 0.15975 0.819494 0.394235
292 1 0.60446 0.150239 0.904077
293 1 0.305808 0.773546 0.285685
294 1 0.843722 0.691734 0.888297
295 1 0.25861 0.410209 0.165344
296 1 0.965252 0.468832 0.794438
297 1 0.807499 0.701116 0.824387
298 1 0.320857 0.963406 0.390472
299 1 0.149034 0.129467 0.256324
300 1 0.847807 0.62441 0.512758
301 1 0.265672 0.208622 0.554253
302 1 0.484869 0.339471 0.0671185
303 1 0.38475 0.963578 0.293803
304 1 0.992803 0.352226 0.7445
305 1 0.727503 0.814107 0.925657
306 1 0.5801 0.53189 0.68267
307 1 0.344395 0.489976 0.128016
308 1 0.343624 0.954799 0.624702
309 1 0.561996 0.41917 0.595787
310 1 0.557444 0.0742069 0.705546
311 1 0.119692 0.656613 0.143681
312 1 0.363767 0.227329 0.339059
313 1 0.309974 0.487148 0.991406
314 1 0.975561 0.766263 0.621291
315 1 0.441371 0.0142673 0.159431
316 1 0.672213 0.176708 0.734027
317 1 0.706639 0.825596 0.714991
318 1 0.525661 0.552096 0.960585
319 1 0.34012 0.512815 0.794405
320 1 0.62448 0.686424 0.043576
321 1 0.131833 0.95256 0.455208
322 1 0.709147 0.865228 0.283854
323 1 0.352537 0.407101 0.474542
324 1 0.093073 0.811973 0.316215
325 1 0.101529 0.85334 0.266101
326 1 0.364807 0.553908 0.397685
327 1 0.329898 0.807651 0.56379
328 1 0.950492 0.766301 0.383466
329 1 0.393137 0.590273 0.355482
330 1 0.825026 0.343056 0.626268
331 1 0.251459 0.504948 0.362448
332 1 0.378062 0.0431327 0.70827
333 1 0.649639 0.647329 0.200949
334 1 0.955656 0.824661 0.342487
335 1 0.755858 0.0571308 0.474153
336 1 0.524512 0.882697 0.133845
337 1 0.753772 0.554751 0.11826
338 1 0.417246 0.83415 0.0461864
339 1 0.251032 0.529611 0.843918
340 1 0.923497 0.968867 0.518666
341 1 0.356777 0.716539 0.360069
342 1 0.477946 0.0458036 0.212784
343 1 0.815269 0.578309 0.453729
344 1 0.46631 0.0154778 0.0336615
345 1 0.00430241 0.964938 0.0434114
346 1 0.301571 0.726889 0.478625
347 1 0.452043 0.175484 0.995727
348 1 0.879399 0.213407 0.983122
349 1 0.55251 0.869352 0.38599
350 1 0.964021 0.696552 0.2159
351 1 0.586694 0.96748 0.478795
352 1 0.755413 0.826017 0.689492
353 1 0.188661 0.693388 0.680467
354 1 0.479451 0.825237 0.0201614
355 1 0.0344207 0.840282 0.962277
356 1 0.859625 0.509762 0.611568
357 1 0.427273 0.178742 0.297181
358 1 0.428237 0.358591 0.378286
359 1 0.0729505 0.347945 0.968577
360 1 0.0326671 0.271062 0.363451
361 1 0.126019 0.197479 0.0597584
362 1 0.765878 0.361411 0.951582
363 1 0.835445 0.946782 0.804857
364 1 0.752624 0.243664 0.00340234
365 1 0.291951 0.878321 0.636217
366 1 0.170912 0.662762 0.801737
367 1 0.875235 0.0307885 0.639701
368 1 0.880714 0.283118 0.530519
369 1 0.54474 0.940476 0.780464
370 1 0.866038 0.553547 0.844653
371 1 0.34573 0.760081 0.122806
372 1 0.72654 0.273565 0.0836307
373 1 0.433845 0.647176 0.396551
374 1 0.642656 0.500042 0.0415776
375 1 0.234571 0.532753 0.0018308
376 1 0.248516 0.717241 0.446736
377 1 0.137339 0.703099 0.880255
378 1 0.169016 0.217956 0.217314
379 1 0.101553 0.256685 0.47124
380 1 0.940087 0.775642 0.880033
381 1 0.984022 0.935358 0.855533
382 1 0.601031 0.0180144 0.0611117
383 1 0.113149 0.0782309 0.896535
384 1 0.940262 0.193955 0.0218452
385 1 0.407764 0.0130096 0.932411
386 1 0.284284 0.451363 0.113161
387 1 0.094504 0.123251 0.926021
388 1 0.430356 0.140466 0.544063
389 1 0.0984155 0.448591 0.697928
390 1 0.893962 0.371126 0.941361
391 1 0.0834105 0.00980494 0.138278
392 1 0.0829247 0.0666787 0.616588
393 1 0.342198 0.598458 0.456094
394 1 0.431519 0.359555 0.695392
395 1 0.320108 0.386293 0.10572
396 1 0.709063 0.228639 0.0439608
397 1 0.11944 0.433758 0.756082
398 1 0.0633241 0.413698 0.262283
399 1 0.34792 0.10893 0.346465
400 1 0.75359 0.116057 0.0520128
401 1 0.969537 0.241811 0.811161
402 1 0.239658 0.922608 0.666398
403 1 0.83951 0.85102 0.241142
404 1 0.6606 0.33661 0.365968
405 1 0.589764 0.168832 0.232451
406 1 0.618967 0.0574278 0.822718
407 1 0.323382 0.768154 0.44431
408 1 0.585764 0.95709 0.533759
409 1 0.939563 0.0828368 0.222217
410 1 0.0844732 0.084949 0.265123
411 1 0.0422036 0.866033 0.318685
412 1 0.526535 0.264217 0.593167
413 1 0.555714 0.203293 0.0661563
414 1 0.0144746 0.94112 0.969629
415 1 0.761647 0.242849 0.823462
416 1 0.168431 0.0487856 0.263822
417 1 0.158865 0.50768 0.0963255
418 1 0.305045 0.502369 0.165518
419 1 0.757284 0.86013 0.755415
420 1 0.385467 0.546039 0.540259
421 1 0.464114 0.373057 0.322659
422 1 0.584723 0.0437072 0.483181
423 1 0.634141 0.209734 0.100431
424 1 0.668616 0.0406744 0.232381
425 1 0.0261946 0.989688 0.413186
426 1 0.545335 0.0848794 0.449981
427 1 0.631789 0.64606 0.410561
428 1 0.14698 0.820241 0.930874
429 1 0.889361 0.806098 0.113082
430 1 0.512302 0.270133 0.237096
431 1 0.924233 0.863509 0.103188
432 1 0.143416 0.291103 0.591112
433 1 0.0567303 0.028974 0.539296
434 1 0.820584 0.000927603 0.546609
435 1 0.9729 0.422721 0.290498
436 1 0.0149651 0.233719 0.93075
437 1 0.392042 0.0355046 0.447333
438 1 0.322613 0.562664 0.762684
439 1 0.461958 0.440334 0.879979
440 1 0.130992 0.540755 0.142612
441 1 0.915417 0.0822682 0.403598
442 1 0.163419 0.919246 0.0937626
443 1 0.801407 0.050244 0.32452
444 1 0.279688 0.116694 0.61182
445 1 0.0156806 0.130902 0.743727
446 1 0.907395 0.994625 0.167131
447 1 0.50689 0.145147 0.682032
448 1 0.862287 0.256367 0.658561
449 1 0.0852888 0.288686 0.168732
450 1 0.223242 0.575897 0.805905
451 1 0.769835 0.518124 0.966445
452 1 0.62665 0.207645 0.213593
453 1 0.117482 0.390452 0.0253131
454 1 0.176585 0.205185 1.00022
455 1 0.170128 0.615422 0.148418
456 1 0.614172 0.955578 0.755654
457 1 0.862461 0.0782832 0.518703
458 1 0.459388 0.467567 0.555
459 1 0.723455 0.927997 0.00232392
460 1 0.981402 0.0833044 0.86279
461 1 0.375836 0.876086 0.536424
462 1 0.122042 0.117692 0.0348461
463 1 0.191734 0.522442 0.459062
464 1 0.0430908 0.604368 0.929171
465 1 0.821056 0.274884 0.60857
466 1 0.871237 0.109953 0.381075
467 1 0.895021 0.938555 0.763939
468 1 0.476011 0.0986593 0.652669
469 1 0.0945683 0.145264 0.595347
470 1 0.101994 0.920303 0.704815
471 1 0.855332 0.107754 0.313779
472 1 0.714452 0.559727 0.172551
473 1 0.990127 0.161949 0.0600189
474 1 0.301401 0.935167 0.734744
475 1 0.469099 0.8317 0.293696
476 1 0.773298 0.02116 0.936376
477 1 0.594866 0.984467 0.276414
478 1 0.497796 0.276289 0.297912
479 1 0.813663 0.148745 0.738379
480 1 0.414963 0.268171 0.972571
481 1 0.299648 0.227751 0.945259
482 1 0.931113 0.0970061 0.912412
483 1 0.142065 0.862488 0.0488502
484 1 0.340119 0.959742 0.259839
485 1 0.830762 0.382763 0.57364
486 1 0.868539 0.414385 0.993829
487 1 0.930166 0.689188 0.158344
488 1 0.114832 0.011699 0.0205595
489 1 0.789469 0.141904 0.904269
490 1 0.239159 0.40813 0.766455
491 1 0.512257 0.683818 0.649704
492 1 0.369784 0.0319576 0.277664
493 1 0.172483 0.875757 0.495239
494 1 0.33148 0.99092 0.883616
495 1 0.391208 0.0518904 0.620803
496 1 0.312134 0.648042 0.981506
497 1 0.260688 0.720531 0.126506
498 1 0.860675 0.967456 0.342501
499 1 0.967019 0.977805 0.170516
500 1 0.419628 0.664048 0.770488
501 1 0.325947 0.00345482 0.327453
502 1 0.335906 0.0492805 0.13041
503 1 0.447054 0.57529 0.0274164
504 1 0.822262 0.773397 0.0942911
505 1 0.698381 0.442955 0.494444
506 1 0.427294 0.152428 0.456137
507 1 0.229829 0.533517 0.755537
508 1 0.625305 0.982081 0.114869
509 1 0.57384 0.33145 0.152497
510 1 0.457271 0.935998 0.210185
511 1 0.120081 0.777743 0.107399
512 1 0.918852 0.467211 0.184965
513 1 0.621289 0.358954 0.427268
514 1 0.454235 0.0930804 0.450981
515 1 0.523139 0.905049 0.191358
516 1 0.811932 0.41924 0.108608
517 1 0.53784 0.375034 0.878633
518 1 0.480017 0.630977 0.723165
519 1 0.297446 0.599293 0.276604
520 1 0.322467 0.685976 0.696022
521 1 0.668931 0.391136 0.00569921
522 1 0.946624 0.283884 0.353128
523 1 0.932899 0.227976 0.113202
524 1 0.920122 0.184295 0.0754882
525 1 0.836394 0.707368 0.718078
526 1 0.337477 0.344516 0.920637
527 1 0.171117 0.557549 0.997756
528 1 0.124743 0.359608 0.855053
529 1 0.958365 0.321673 0.420729
530 1 0.6827 0.455302 0.859363
531 1 0.11754 0.329021 0.382727
532 1 0.0879166 0.25481 0.625723
533 1 0.772569 0.596176 0.978393
534 1 0.543872 0.0110753 0.440306
535 1 0.183153 0.343705 0.135836
536 1 0.39277 0.0342684 0.517163
537 1 0.382694 0.361997 0.739009
538 1 0.309001 0.606384 0.0401144
539 1 0.321892 0.64573 0.85294
540 1 0.509136 0.706935 0.915402
541 1 0.573541 0.415008 0.865472
542 1 0.498387 0.620775 0.976251
543 1 0.600254 0.206941 0.62595
544 1 0.780908 0.372974 0.229529
545 1 0.362881 0.4672 0.266441
546 1 0.315143 0.464366 0.447879
547 1 0.4664 0.563053 0.807018
548 1 0.02672 0.170649 0.101021
549 1 0.783229 0.678629 0.771226
550 1 0.818878 0.839188 0.301648
551 1 0.98601 0.246277 0.310333
552 1 0.990706 0.206348 0.22153
553 1 0.914128 0.326899 0.0884936
554 1 0.749619 0.549157 0.616816
555 1 0.804507 0.449935 0.227818
556 1 0.0156401 0.911357 0.907569
557 1 0.146404 0.344336 0.632335
558 1 0.888108 0.172717 0.763112
559 1 0.869979 0.957582 0.982185
560 1 0.893299 0.205912 0.650074
561 1 0.837762 0.984081 0.681799
562 1 0.858744 0.330137 0.313494
563 1 0.0395534 0.438163 0.107529
564 1 0.407925 0.835801 0.315579
565 1 0.0369765 0.6307 0.198722
566 1 0.46368 0.735382 0.616488
567 1 0.363265 0.158421 0.482065
568 1 0.852313 0.572054 0.732585
569 1 0.866084 0.0406315 0.701868
570 1 0.965962 0.471747 0.890495
571 1 0.0951619 0.86945 0.996763
572 1 0.246342 0.922123 0.855627
573 1 0.175295 0.588366 0.233893
574 1 0.412861 0.35365 0.634458
575 1 0.050738 0.604418 0.385469
576 1 0.108552 0.865059 0.924888
577 1 0.104156 0.28295 0.109799
578 1 0.215366 0.300229 0.784329
579 1 0.234356 0.472007 0.145859
580 1 0.853285 0.477986 0.876507
581 1 0.185422 0.512784 0.892191
582 1 0.495718 0.188466 0.950853
583 1 0.358191 0.15247 0.126576
584 1 0.980695 0.509267 0.173865
585 1 0.306252 0.646518 0.739285
586 1 0.0156955 0.287868 0.900223
587 1 0.191265 0.933371 0.463012
588 1 0.920729 0.154213 0.352206
589 1 0.0496839 0.481186 0.687283
590 1 0.150772 0.25728 0.0237332
591 1 0.499725 0.09812 0.110021
592 1 0.665128 0.640761 0.996712
593 1 0.633641 0.267493 0.672848
594 1 0.873387 0.211611 0.352096
595 1 0.248407 0.612466 0.936552
596 1 0.986367 0.187032 0.635856
597 1 0.971424 0.854567 0.874786
598 1 0.358668 0.539775 0.173699
599 1 0.788539 0.953309 0.0455746
600 1 0.629144 0.772929 0.630792
601 1 0.948855 0.247508 0.209873
602 1 0.451446 0.941635 0.619544
603 1 0.31851 0.910913 0.803115
604 1 0.554663 0.776743 0.0067648
605 1 0.116366 0.902708 0.519525
606 1 0.339246 0.259173 0.0546192
607 1 0.804886 0.573456 0.939432
608 1 0.263417 0.218785 0.123754
609 1 0.193361 0.816842 0.984509
610 1 0.0650532 0.376838 0.202762
611 1 0.713555 0.71625 0.247875
612 1 0.463625 0.605247 0.0776728
613 1 0.241846 0.871425 0.437328
614 1 0.220193 0.396485 0.122123
615 1 0.583902 0.860698 0.55218
616 1 0.102722 0.535396 0.767991
617 1 0.366032 0.46474 0.749405
618 1 0.319175 0.468296 0.710104
619 1 0.1736 0.56835 0.292166
620 1 0.0892539 0.75904 0.372834
621 1 0.822534 0.398231 0.265298
622 1 0.452898 0.266312 0.51449
623 1 0.825695 0.399174 0.201811
624 1 0.367882 0.381466 0.66883
625 1 0.137373 0.676819 0.428114
626 1 0.392176 0.446832 0.887947
627 1 0.934759 0.380388 0.761127
628 1 0.0620786 0.433237 0.160135
629 1 0.805491 0.0396319 0.259771
630 1 0.515373 0.815645 0.41101
631 1 0.657999 0.823589 0.289731
632 1 0.771552 0.805534 0.984306
633 1 0.933294 0.246122 0.494639
634 1 0.156769 0.383411 0.310633
635 1 0.861738 0.580573 0.26107
636 1 0.676402 0.745416 0.134459
637 1 0.834091 0.0913701 0.692963
638 1 0.677399 0.952947 0.144679
639 1 0.741459 0.0852157 0.829277
640 1 0.342917 0.976502 0.448364
641 1 0.310852 0.53238 0.846862
642 1 0.868611 0.705902 0.501568
643 1 0.561672 0.549934 0.243999
644 1 0.861365 0.445447 0.063349
645 1 0.129002 0.825422 0.463106
646 1 0.544047 0.609941 0.130924
647 1 0.661291 0.124851 0.308642
648 1 0.614209 0.700427 0.515825
649 1 0.0983272 0.953033 0.017457
650 1 0.969294 0.411504 0.0704574
651 1 0.183985 0.864182 0.102026
652 1 0.560343 0.804663 0.365483
653 1 0.724692 0.656957 0.243134
654 1 0.959066 0.0611307 0.0566497
655 1 0.423792 0.622723 0.206677
656 1 0.419739 0.63257 0.831653
657 1 0.299603 0.03744 0.244199
658 1 0.974755 0.591363 0.675047
659 1 0.311621 0.343654 0.84984
660 1 0.490489 0.669143 0.860278
661 1 0.125053 0.649833 0.842726
662 1 0.997348 0.539302 0.386234
663 1 0.393052 0.796285 0.189931
664 1 0.138273 0.759581 0.961339
665 1 0.884897 0.556552 0.411491
666 1 0.0669118 0.910553 0.160753
667 1 0.399975 0.307131 0.518053
668 1 0.19239 0.348391 0.202384
669 1 0.797633 0.255163 0.102159
670 1 0.731721 0.393835 0.507057
671 1 0.575873 0.402683 0.921893
672 1 0.758954 0.00124828 0.0663377
673 1 0.760444 0.721387 0.524069
674 1 0.237341 0.661487 0.0240294
675 1 0.377775 0.0850942 0.15338
676 1 0.357401 0.34729 0.454292
677 1 0.672129 0.457749 0.968187
678 1 0.836351 0.777132 0.801662
679 1 0.0458324 0.983035 0.257791
680 1 0.904275 0.853602 0.242921
681 1 0.446855 0.753861 0.709412
682 1 0.940205 0.97461 0.624596
683 1 0.397262 0.932428 0.814221
684 1 0.771323 0.103247 0.379298
685 1 0.953351 0.754576 0.952821
686 1 0.0723363 0.516019 0.309751
687 1 0.959932 0.567161 0.568581
688 1 0.00930537 0.237633 0.989072
689 1 0.353659 0.426497 0.831009
690 1 0.261361 0.206196 0.783851
691 1 0.808252 0.0815875 0.559788
692 1 0.572178 0.712897 0.687232
693 1 0.433785 0.650439 0.00714275
694 1 0.28088 0.119939 0.201183
695 1 0.953457 0.162542 0.80638
696 1 0.339768 0.847608 0.479749
697 1 0.668526 0.210471 0.255763
698 1 0.984148 0.594719 0.790878
699 1 0.628657 0.845287 0.984068
700 1 0.664779 0.878795 0.338239
701 1 0.472716 0.766848 0.486932
702 1 0.074113 0.0322928 0.894817
703 1 0.290515 0.673472 0.384245
704 1 0.752568 0.70753 0.860664
705 1 0.889141 0.89197 0.195595
706 1 0.728479 0.424937 0.430658
707 1 0.828427 0.262177 0.540611
708 1 0.770908 0.188816 0.842452
709 1 0.0416326 0.280995 0.0549923
710 1 0.828688 0.837295 0.017536
711 1 0.0923937 0.0431841 0.965115
712 1 0.881935 0.741886 0.830286
713 1 0.381969 0.52794 0.483115
714 1 0.916861 0.577448 0.839625
715 1 0.343535 0.554827 0.656949
716 1 0.234182 0.584365 0.874569
717 1 0.327514 0.0108935 0.607883
718 1 0.322364 0.993151 0.699918
719 1 0.928686 0.190611 0.586366
720 1 0.928006 0.780148 0.75242
721 1 0.987784 0.873574 0.562233
722 1 0.303089 0.860356 0.007657
723 1 0.55256 0.822332 0.220457
724 1 0.663521 0.732963 0.443628
725 1 0.683309 0.00205559 0.109547
726 1 0.283379 0.219469 0.724963
727 1 0.116258 0.0836006 0.365077
728 1 0.737375 0.493411 0.216941
729 1 0.736581 0.278191 0.5544
730 1 0.377412 0.546283 0.832874
731 1 0.329531 0.660366 0.257803
732 1 0.921691 0.605163 0.21489
733 1 0.417873 0.791477 0.480241
734 1 0.927896 0.842386 0.780189
735 1 0.983722 0.247897 0.159475
736 1 0.309803 0.780133 0.224453
737 1 0.177618 0.633795 0.852611
738 1 0.276922 0.831851 0.671383
739 1 0.567016 0.649503 0.0668762
740 1 0.195981 0.808763 0.0717688
741 1 0.786387 0.402658 0.688341
742 1 0.558175 0.363156 0.417471
743 1 0.00317974 0.301601 0.326255
744 1 0.541898 0.327058 0.580673
745 1 0.505553 0.866773 0.664154
746 1 0.710756 0.11998 0.112268
747 1 0.157381 0.385621 0.402135
748 1 0.139708 0.546261 0.608031
749 1 0.628016 0.33288 0.946437
750 1 0.0355302 0.387563 0.388989
751 1 0.992055 0.786379 0.846185
752 1 0.977053 0.436393 0.182669
753 1 0.422582 0.018812 0.244268
754 1 0.953748 0.565197 0.744681
755 1 0.908002 0.418968 0.340441
756 1 0.12219 0.393909 0.504826
757 1 0.630422 0.848483 0.442011
758 1 0.859974 0.918355 0.713403
759 1 0.360067 0.104512 0.0838008
760 1 0.824875 0.170838 0.799519
761 1 0.82934 0.523025 0.698678
762 1 0.0857307 0.205683 0.228692
763 1 0.132735 0.486206 0.0250999
764 1 0.350166 0.262922 0.166885
765 1 0.850498 0.131893 0.914206
766 1 0.0979108 0.139872 0.108676
767 1 0.599099 0.562212 0.0396519
768 1 0.0329424 0.871906 0.44404
769 1 0.941142 0.96348 0.801002
770 1 0.0413483 0.253128 0.583192
771 1 0.754796 0.865048 0.998429
772 1 0.316971 0.174639 0.699472
773 1 0.510802 0.628212 0.379694
774 1 0.792213 0.514886 0.0220187
775 1 0.0407049 0.00852342 0.477375
776 1 0.402321 0.888651 0.431849
777 1 0.680095 0.0612193 0.801022
778 1 0.568026 0.743687 0.892378
779 1 0.307693 0.662264 0.325165
780 1 0.603756 0.813042 0.25623
781 1 0.561034 0.608397 0.00285226
782 1 0.598583 0.253832 0.583643
783 1 0.670426 0.179843 0.449445
784 1 0.112363 0.756683 0.898169
785 1 0.776472 0.566936 0.369396
786 1 0.774934 0.198893 0.116372
787 1 0.711911 0.106252 0.363036
788 1 0.505871 1.00011 0.14643
789 1 0.61703 0.302758 0.382522
790 1 0.459204 0.289009 0.362054
791 1 0.159543 0.1246 0.413213
792 1 0.123759 0.98999 0.533394
793 1 0.750649 0.0970137 0.231597
794 1 0.518249 0.813635 0.963115
795 1 0.211598 0.749155 0.414311
796 1 0.699226 0.736522 0.774158
797 1 0.0263554 0.719815 0.136583
798 1 0.0174899 0.782444 0.65984
799 1 0.362827 0.880569 0.161997
800 1 0.604155 0.33187 0.100903
801 1 0.634317 0.833188 0.667863
802 1 0.09116 0.872751 0.434939
803 1 0.180898 0.146114 0.0539434
804 1 0.359319 0.327817 0.0952516
805 1 0.591811 0.255173 0.924436
806 1 0.275696 0.398028 0.608567
807 1 0.0707674 0.202702 0.547822
808 1 0.370245 0.397917 0.997362
809 1 0.452678 0.441991 0.983348
810 1 0.285451 0.942764 0.181545
811 1 0.120245 0.31057 0.511867
812 1 0.183017 0.988981 0.57668
813 1 0.306217 0.931775 0.665304
814 1 0.3417 0.522839 0.926404
815 1 0.356897 0.27444 0.540938
816 1 0.121939 0.0528989 0.310788
817 1 0.700353 0.885784 0.220867
818 1 0.389933 0.290898 0.0265684
819 1 0.367075 0.810485 0.507213
820 1 0.0969705 0.70392 0.265588
821 1 0.816157 0.0684545 0.420612
822 1 0.160185 0.141728 0.692277
823 1 0.52414 0.0425231 0.329755
824 1 0.181683 0.375516 0.0376013
825 1 0.832393 0.859267 0.359253
826 1 0.844455 0.691418 0.775334
827 1 0.151373 0.670408 0.243933
828 1 0.603068 0.812704 0.604712
829 1 0.880561 0.194122 0.515005
830 1 0.963957 0.884107 0.920372
831 1 0.554353 0.300254 0.084183
832 1 0.22559 0.944686 0.259199
833 1 0.513231 0.979426 0.352941
834 1 0.355629 0.315163 0.587975
835 1 0.988581 0.405181 0.750837
836 1 0.804383 0.677773 0.434521
837 1 0.78381 0.827314 0.0484928
838 1 0.836394 0.318304 0.5054
839 1 0.96397 0.78826 0.689882
840 1 0.776373 0.975823 0.342559
841 1 0.288536 0.00381638 0.940039
842 1 0.270278 0.0915615 0.797309
843 1 0.191933 0.0415831 0.321933
844 1 0.159268 0.709838 0.985323
845 1 0.324219 0.232795 0.223315
846 1 0.226537 0.748065 0.762487
847 1 0.577529 0.80748 0.78859
848 1 0.962347 0.524914 0.325732
849 1 0.224076 0.0164718 0.636233
850 1 0.209803 0.226315 0.445842
851 1 0.564174 0.104284 0.905484
852 1 0.703688 0.822686 0.162913
853 1 0.917774 0.764914 1.0011
854 1 0.766517 0.202479 0.176297
855 1 0.0637449 0.0733897 0.125028
856 1 0.135724 0.233038 0.111584
857 1 0.246938 0.355858 0.433794
858 1 0.0989403 0.286488 0.000654284
859 1 0.348849 0.0386165 0.557347
860 1 0.594212 0.430543 0.519663
861 1 0.933839 0.137501 0.287723
862 1 0.554401 0.462276 0.48453
863 1 0.745604 0.718754 0.444958
864 1 0.425356 0.235211 0.635769
865 1 0.609779 0.356101 0.206813
866 1 0.133147 0.895111 0.586033
867 1 0.737842 0.257776 0.246896
868 1 0.786997 0.90494 0.511234
869 1 0.087001 0.897891 0.222891
870 1 0.267438 0.257386 0.178956
871 1 0.660802 0.705653 0.186281
872 1 0.849027 0.872964 0.923697
873 1 0.378152 0.197041 0.208985
874 1 0.770252 0.346085 0.67677
875 1 0.523231 0.591608 0.0742929
876 1 0.425672 0.0498337 0.0151484
877 1 0.845048 0.870176 0.0844777
878 1 0.961202 0.900333 0.421695
879 1 0.0498953 0.238596 0.154426
880 1 0.842007 0.948544 0.443671
881 1 0.670539 0.641463 0.520108
882 1 0.907173 0.474264 0.997158
883 1 0.562684 0.525342 0.865931
884 1 0.863126 0.558059 0.131442
885 1 0.605274 0.633889 0.53103
886 1 0.00744415 0.0413751 0.904191
887 1 0.701227 0.273035 0.680221
888 1 0.470547 0.824793 0.151884
889 1 0.869927 0.236384 0.471517
890 1 0.96224 0.693659 0.947519
891 1 0.565206 0.10993 0.234977
892 1 0.77738 0.143932 0.128158
893 1 0.00560839 0.875787 0.744222
894 1 0.559045 0.297541 0.893119
895 1 0.715935 0.504855 0.581511
896 1 0.842509 0.131196 0.529954
897 1 0.835387 0.965867 0.867605
898 1 0.796339 0.992289 0.430277
899 1 0.676901 0.732854 0.0376016
900 1 0.278921 0.598929 0.396061
901 1 0.434421 0.329088 0.893547
902 1 0.54222 0.425958 0.6741
903 1 0.327041 0.0579506 0.320643
904 1 0.39205 0.0849957 0.825283