ITEM: TIMESTEP
34600
ITEM: NUMBER OF ATOMS
4000
ITEM: BOX BOUNDS pp pp pp
0.0000000000000000e+00 1.6795961913825074e+01
0.0000000000000000e+00 1.6795961913825074e+01
0.0000000000000000e+00 1.6795961913825074e+01
ITEM: ATOMS id type xs ys zs
1 1 0.0869933 0.0506609 0.0685697
2 1 0.090111 0.182456 0.883027
3 1 0.0164613 0.907504 0.949472
4 1 0.0539718 0.152663 0.102444
5 1 0.0878385 0.988902 0.129028
6 1 0.278212 0.104149 0.112817
7 1 0.225006 0.0186218 0.031929
8 1 0.0244732 0.969988 0.152736
9 1 0.406813 0.898508 0.0070622
10 1 0.298048 0.00341922 0.0461485
11 1 0.959649 0.947207 0.164047
12 1 0.213602 0.116185 0.874264
13 1 0.316659 0.147084 0.0860517
14 1 0.342662 0.153356 0.939184
15 1 0.366092 0.250238 0.124207
16 1 0.310198 0.956933 0.139153
17 1 0.540285 0.00299615 0.855911
18 1 0.347581 0.82887 0.993594
19 1 0.429432 0.913271 0.0695661
20 1 0.484039 0.101633 0.169918
21 1 0.363578 0.860705 0.0463883
22 1 0.524635 0.126177 0.122691
23 1 0.524204 0.900668 0.0485062
24 1 0.6025 0.0195929 0.764638
25 1 0.632587 0.961896 0.943699
26 1 0.61562 0.982982 0.0456583
27 1 0.680332 0.00656061 0.257775
28 1 0.691235 0.91505 0.92683
29 1 0.688618 0.0992049 0.962788
30 1 0.781164 0.0634308 0.789849
31 1 0.799841 0.157121 0.172592
32 1 0.63911 0.0735227 0.178871
33 1 0.832585 0.974117 0.9309
34 1 0.698352 0.151977 0.781107
35 1 0.672157 0.00463815 0.0664775
36 1 0.756638 0.145194 0.777073
37 1 0.668563 0.109685 0.908468
38 1 0.769378 0.981784 0.00156657
39 1 0.943736 0.0263556 0.964973
40 1 0.877616 0.847717 0.18218
41 1 0.937443 0.201324 0.84741
42 1 0.113269 0.987068 0.869609
43 1 0.961547 0.186445 0.274558
44 1 0.0427248 0.00551882 0.202614
45 1 0.12646 0.98671 0.0654037
46 1 0.262938 0.241179 0.0646562
47 1 0.33465 0.0849892 0.121963
48 1 0.146132 0.374743 0.0687073
49 1 0.996351 0.966548 0.838438
50 1 0.353908 0.177358 0.130781
51 1 0.381822 0.957096 0.102967
52 1 0.00645651 0.175914 0.148524
53 1 0.207919 0.173896 0.97941
54 1 0.535113 0.109847 0.923697
55 1 0.591663 0.109307 0.199068
56 1 0.336524 0.160461 0.000975002
57 1 0.549434 0.0128374 0.124402
58 1 0.630892 0.181626 0.00112372
59 1 0.294587 0.107555 0.0378441
60 1 0.484853 0.13547 0.0479414
61 1 0.467272 0.266244 0.883877
62 1 0.519551 0.18391 0.041316
63 1 0.672764 0.0808295 0.0833076
64 1 0.412574 0.94207 0.959864
65 1 0.545557 0.934192 0.823572
66 1 0.522918 0.1524 0.989755
67 1 0.459848 0.860513 0.0220364
68 1 0.266929 0.0220837 0.198959
69 1 0.433823 0.0831878 0.976182
70 1 0.809498 0.298286 0.887682
71 1 0.723989 0.248693 0.0810645
72 1 0.564181 0.160701 0.886957
73 1 0.838753 0.0440092 0.0124657
74 1 0.787237 0.257966 0.935642
75 1 0.769027 0.167376 0.992864
76 1 0.633214 0.208548 0.201513
77 1 0.858301 0.169169 0.132149
78 1 0.711654 0.0633946 0.142854
79 1 0.997326 0.0535658 0.981548
80 1 0.671766 0.273116 0.191978
81 1 0.0781052 0.252491 0.0216189
82 1 0.961519 0.0245663 0.0197006
83 1 0.896778 0.0649923 0.0330085
84 1 0.0190432 0.27188 0.0190464
85 1 0.778956 0.226205 0.84283
86 1 0.358203 0.367665 0.993644
87 1 0.380486 0.434797 0.869881
88 1 0.139862 0.119466 0.973941
89 1 0.0879128 0.180036 0.992679
90 1 0.150589 0.192974 0.989133
91 1 0.130414 0.119294 0.204775
92 1 0.275164 0.156676 0.966805
93 1 0.252117 0.277253 0.832364
94 1 0.3454 0.28913 0.842824
95 1 0.559301 0.161842 0.0842451
96 1 0.331802 0.321615 0.0970067
97 1 0.301602 0.121966 0.911245
98 1 0.530521 0.0974143 0.0534176
99 1 0.318934 0.149989 0.22446
100 1 0.531708 0.288464 0.903661
101 1 0.385461 0.116878 0.970889
102 1 0.408022 0.236784 0.893935
103 1 0.724582 0.26913 0.95492
104 1 0.607356 0.28845 0.0465956
105 1 0.415601 0.0783068 0.0652673
106 1 0.592102 0.150106 0.833057
107 1 0.730588 0.916041 0.15594
108 1 0.591805 0.220398 0.106512
109 1 0.852274 0.899107 0.986588
110 1 0.826489 0.500272 0.0845314
111 1 0.742777 0.238473 0.00568792
112 1 0.779048 0.283764 0.992602
113 1 0.857614 0.176484 0.00312418
114 1 0.545766 0.255462 0.0307157
115 1 0.805785 0.312848 0.117007
116 1 0.702625 0.348133 0.0969743
117 1 0.905405 0.143354 0.0397958
118 1 0.79587 0.0771747 0.972551
119 1 0.964133 0.125999 0.166048
120 1 0.803154 0.167648 0.101714
121 1 0.0481276 0.450884 0.0676575
122 1 0.233424 0.339805 0.89113
123 1 0.980637 0.191323 0.906973
124 1 0.163666 0.40779 0.928984
125 1 0.0811643 0.325052 0.924353
126 1 0.166586 0.333033 0.0265653
127 1 0.175947 0.358129 0.880794
128 1 0.179379 0.387417 0.988233
129 1 0.390018 0.18978 0.97169
130 1 0.47515 0.304275 0.938109
131 1 0.227749 0.165836 0.918392
132 1 0.403267 0.410918 0.988242
133 1 0.388204 0.193392 0.175265
134 1 0.351567 0.455834 0.959601
135 1 0.314869 0.429658 0.00242475
136 1 0.372507 0.268832 0.062489
137 1 0.258796 0.303263 0.0831837
138 1 0.488642 0.235957 0.0406209
139 1 0.572635 0.369083 0.109584
140 1 0.384777 0.364201 0.104512
141 1 0.426803 0.295937 0.0512765
142 1 0.658228 0.407972 0.94808
143 1 0.543821 0.2114 0.989059
144 1 0.599556 0.122023 0.325159
145 1 0.848869 0.250063 0.934713
146 1 0.685885 0.293651 0.0988669
147 1 0.617662 0.374869 0.152282
148 1 0.536367 0.379282 0.922886
149 1 0.681744 0.312214 0.921442
150 1 0.737812 0.374458 0.0427215
151 1 0.775158 0.264007 0.044626
152 1 0.68414 0.387106 0.00955729
153 1 0.815214 0.317201 0.958573
154 1 0.885141 0.398604 0.958228
155 1 0.942994 0.361668 0.939581
156 1 0.761607 0.37256 0.827997
157 1 0.00961516 0.462735 0.984451
158 1 0.0657328 0.421327 0.0076095
159 1 0.955859 0.251307 0.0534749
160 1 0.866025 0.409223 0.0122458
161 1 0.974799 0.333066 0.156438
162 1 0.165515 0.463341 0.0816272
163 1 0.0430482 0.567555 0.0491038
164 1 0.0542186 0.408189 0.127199
165 1 0.117841 0.454824 0.876703
166 1 0.154016 0.498374 0.858534
167 1 0.117606 0.301314 0.14945
168 1 0.131597 0.537943 0.900017
169 1 0.228256 0.396599 0.911537
170 1 0.0867393 0.347767 0.108275
171 1 0.257558 0.214967 0.996537
172 1 0.0506247 0.527825 0.167536
173 1 0.257156 0.275664 0.00830392
174 1 0.241965 0.490048 0.963682
175 1 0.252435 0.454883 0.911361
176 1 0.113805 0.382645 0.00739604
177 1 0.468387 0.454442 0.905924
178 1 0.537915 0.49013 0.142533
179 1 0.457411 0.362149 0.968831
180 1 0.373881 0.465606 0.0289033
181 1 0.522402 0.461762 0.0227532
182 1 0.684458 0.253264 0.026833
183 1 0.565656 0.365126 0.992282
184 1 0.354819 0.507394 0.120799
185 1 0.419527 0.34047 0.0136246
186 1 0.63248 0.465 0.0938658
187 1 0.514073 0.332164 0.971812
188 1 0.430503 0.262408 0.944879
189 1 0.609743 0.110426 0.878749
190 1 0.726213 0.307689 0.0330775
191 1 0.701875 0.465069 0.116093
192 1 0.660029 0.516341 0.137311
193 1 0.759262 0.343409 0.992537
194 1 0.877715 0.462731 0.963377
195 1 0.772321 0.545777 0.203405
196 1 0.783791 0.404003 0.999074
197 1 0.820863 0.498927 0.221035
198 1 0.0562343 0.287433 0.133954
199 1 0.879341 0.400561 0.0974852
200 1 0.926754 0.491705 0.0651038
201 1 0.0707112 0.546405 0.098783
202 1 0.0542309 0.852261 0.963712
203 1 0.0149409 0.521766 0.00231219
204 1 0.945056 0.659378 0.943272
205 1 0.203521 0.530034 0.82728
206 1 0.00262153 0.75002 0.935358
207 1 0.0395691 0.541287 0.880955
208 1 0.0956792 0.509659 0.848189
209 1 0.19232 0.407266 0.110586
210 1 0.218973 0.430985 0.962224
211 1 0.206303 0.356021 0.0734908
212 1 0.091044 0.755275 0.9236
213 1 0.0679629 0.487616 0.976897
214 1 0.253713 0.664675 0.851165
215 1 0.40667 0.557056 0.948162
216 1 0.206173 0.473164 0.00583569
217 1 0.352416 0.524748 0.955241
218 1 0.466516 0.5814 0.0967602
219 1 0.305211 0.521036 0.176324
220 1 0.195341 0.595978 0.195865
221 1 0.636058 0.340554 0.987898
222 1 0.565696 0.479562 0.189922
223 1 0.542787 0.502334 0.0738965
224 1 0.455894 0.437657 0.0692612
225 1 0.559548 0.625087 0.851411
226 1 0.847579 0.335137 0.0138816
227 1 0.468539 0.506554 0.107933
228 1 0.575957 0.557312 0.117581
229 1 0.0843874 0.666529 0.0681473
230 1 0.876184 0.467088 0.0721811
231 1 0.712398 0.61706 0.941205
232 1 0.620786 0.498278 0.20478
233 1 0.834787 0.46066 0.0212238
234 1 0.816665 0.433496 0.959594
235 1 0.917848 0.45346 0.0173688
236 1 0.922916 0.626259 0.989716
237 1 0.830141 0.377677 0.0578307
238 1 0.88204 0.537579 0.0660701
239 1 0.934827 0.553553 0.0944428
240 1 0.894588 0.509525 0.226143
241 1 0.854214 0.751963 0.188001
242 1 0.0490474 0.716391 0.836505
243 1 0.903138 0.660354 0.039967
244 1 0.945682 0.722537 0.928145
245 1 0.149171 0.696905 0.058024
246 1 0.269816 0.602842 0.859416
247 1 0.0862986 0.638811 0.931153
248 1 0.869589 0.672298 0.987432
249 1 0.148088 0.873135 0.166828
250 1 0.167744 0.707797 0.00573403
251 1 0.256507 0.616026 0.113203
252 1 0.424236 0.722102 0.865728
253 1 0.258285 0.675071 0.00188702
254 1 0.239097 0.539617 0.0264744
255 1 0.375813 0.567129 0.999348
256 1 0.382181 0.655086 0.0828467
257 1 0.311873 0.559173 0.0457194
258 1 0.306566 0.749806 0.762501
259 1 0.326372 0.506527 0.00633292
260 1 0.471467 0.675498 0.201429
261 1 0.504842 0.597043 0.958143
262 1 0.52239 0.583679 0.066287
263 1 0.453809 0.51783 0.167208
264 1 0.405946 0.679151 0.134839
265 1 0.468934 0.502547 0.0494793
266 1 0.655977 0.704452 0.0229973
267 1 0.714956 0.653525 0.136066
268 1 0.638985 0.569044 0.106688
269 1 0.736448 0.519998 0.0940149
270 1 0.727055 0.581112 0.193331
271 1 0.669029 0.58633 0.251176
272 1 0.907437 0.569281 0.00547231
273 1 0.881611 0.594292 0.0786611
274 1 0.736893 0.816407 0.0554112
275 1 0.73737 0.635258 0.0429892
276 1 0.714081 0.547236 0.0231642
277 1 0.820914 0.557434 0.0575126
278 1 0.828447 0.701463 0.868501
279 1 0.751254 0.645996 0.903077
280 1 0.763507 0.704029 0.0143599
281 1 0.917374 0.754811 0.0424106
282 1 0.132529 0.925939 0.0521772
283 1 0.969257 0.694885 0.110575
284 1 0.919467 0.870455 0.879045
285 1 0.975664 0.791707 0.056619
286 1 0.31559 0.877017 0.108678
287 1 0.290412 0.618976 0.976337
288 1 0.069874 0.64829 0.994043
289 1 0.305792 0.878763 0.0342055
290 1 0.310435 0.762741 0.9019
291 1 0.33867 0.758092 0.099524
292 1 0.49139 0.719133 0.0260241
293 1 0.266872 0.554295 0.0833486
294 1 0.470974 0.694166 0.908331
295 1 0.164028 0.683623 0.146095
296 1 0.280056 0.671965 0.197566
297 1 0.515723 0.84327 0.0148644
298 1 0.45237 0.798051 0.0415974
299 1 0.373491 0.659194 0.885415
300 1 0.29471 0.984183 0.906585
301 1 0.333758 0.688957 0.108747
302 1 0.400948 0.727968 0.0906948
303 1 0.74867 0.664075 0.210267
304 1 0.579979 0.857475 0.998275
305 1 0.458547 0.630522 0.929899
306 1 0.455497 0.652438 0.78304
307 1 0.589936 0.78285 0.0579681
308 1 0.516984 0.709029 0.0875827
309 1 0.803708 0.511355 0.152379
310 1 0.760983 0.882556 0.953367
311 1 0.765204 0.626355 0.159568
312 1 0.558024 0.6468 0.159218
313 1 0.590232 0.580329 0.969278
314 1 0.789451 0.800109 0.873689
315 1 0.846473 0.781094 0.033513
316 1 0.607115 0.766443 0.00351906
317 1 0.882412 0.734099 0.936308
318 1 0.919262 0.691112 0.877485
319 1 0.960225 0.538286 0.0400574
320 1 0.817465 0.747373 0.908426
321 1 0.0670526 0.896105 0.900361
322 1 0.903539 0.945539 0.908426
323 1 0.0761812 0.762164 0.0175927
324 1 0.000696273 0.844726 0.0268363
325 1 0.167155 0.835058 0.974027
326 1 0.960267 0.722774 0.844546
327 1 0.97421 0.72274 0.0509215
328 1 0.216078 0.833951 0.0236235
329 1 0.9512 0.793288 0.958553
330 1 0.345519 0.94573 0.955351
331 1 0.390813 0.713218 0.980737
332 1 0.12747 0.909353 0.213156
333 1 0.259965 0.996806 0.993514
334 1 0.307377 0.732775 0.0255315
335 1 0.461639 0.771965 0.182413
336 1 0.198888 0.956959 0.15895
337 1 0.259129 0.7815 0.0219294
338 1 0.346124 0.894324 0.989278
339 1 0.293724 0.771769 0.843529
340 1 0.313314 0.947765 0.080815
341 1 0.590995 0.708441 0.855364
342 1 0.558009 0.892573 0.26899
343 1 0.54287 0.901539 0.986972
344 1 0.370484 0.728733 0.15816
345 1 0.516699 0.397194 0.0227627
346 1 0.725829 0.0231983 0.977244
347 1 0.476668 0.639395 0.110486
348 1 0.566736 0.877835 0.183915
349 1 0.571548 0.669925 0.0440858
350 1 0.6258 0.831798 0.0457834
351 1 0.719088 0.689661 0.0571923
352 1 0.884522 0.942258 0.282006
353 1 0.804707 0.0368217 0.902971
354 1 0.778401 0.860421 0.0650473
355 1 0.818484 0.788549 0.971657
356 1 0.684694 0.817452 0.0299829
357 1 0.783427 0.773136 0.0243352
358 1 0.969944 0.765145 0.884893
359 1 0.858789 0.60691 0.0211378
360 1 0.814913 0.907664 0.0336532
361 1 0.179476 0.878079 0.0513196
362 1 0.106615 0.744079 0.824384
363 1 0.0685622 0.869678 0.0749745
364 1 0.16415 0.0313289 0.0385322
365 1 0.948881 0.0889956 0.991827
366 1 0.234098 0.860914 0.920619
367 1 0.122234 0.934048 0.147873
368 1 0.212007 0.0182447 0.23485
369 1 0.303498 0.15009 0.167354
370 1 0.249828 0.36004 0.127759
371 1 0.280116 0.0437753 0.12052
372 1 0.0812146 0.93312 0.0944852
373 1 0.354406 0.985253 0.901051
374 1 0.189482 0.98727 0.982979
375 1 0.362988 0.71355 0.0407715
376 1 0.356969 0.942224 0.0395189
377 1 0.412102 0.814955 0.926641
378 1 0.455973 0.887688 0.962129
379 1 0.540404 0.927144 0.150989
380 1 0.420182 0.891808 0.130505
381 1 0.555265 0.872944 0.116176
382 1 0.582874 0.170273 0.193827
383 1 0.731821 0.148228 0.182353
384 1 0.432941 0.0292315 0.28643
385 1 0.66299 0.942654 0.0792023
386 1 0.732674 0.0911851 0.0752744
387 1 0.583043 0.983648 0.988607
388 1 0.570976 0.136319 0.0212336
389 1 0.683589 0.04943 0.926555
390 1 0.925956 0.982873 0.0561683
391 1 0.782915 0.891336 0.198438
392 1 0.715656 0.841371 0.166778
393 1 0.675717 0.871942 0.725781
394 1 0.950161 0.960986 0.999875
395 1 0.635195 0.749198 0.109991
396 1 0.769355 0.0932948 0.853786
397 1 0.112689 0.0695773 0.017079
398 1 0.995896 0.970964 0.964608
399 1 0.0918435 0.0119962 0.959046
400 1 0.696806 0.871738 0.977476
401 1 0.9674 0.12085 0.0482521
402 1 0.297169 0.198198 0.121512
403 1 0.207527 0.0516547 0.0923061
404 1 0.745018 0.0336996 0.0976188
405 1 0.194717 0.137604 0.296695
406 1 0.231184 0.113543 0.079683
407 1 0.347004 0.998215 0.083027
408 1 0.434364 0.14652 0.149178
409 1 0.181039 0.142006 0.181231
410 1 0.227879 0.0163286 0.151925
411 1 0.0873257 0.885878 0.169382
412 1 0.251486 0.963045 0.184017
413 1 0.247536 0.970653 0.110914
414 1 0.391817 0.0244883 0.135518
415 1 0.417431 0.969117 0.030198
416 1 0.432595 0.103698 0.259445
417 1 0.468837 0.929707 0.010653
418 1 0.429748 0.0937937 0.182894
419 1 0.474735 0.0791034 0.295558
420 1 0.322495 0.0289745 0.21921
421 1 0.36407 0.976511 0.166708
422 1 0.652013 0.995931 0.197838
423 1 0.74875 0.830214 0.297818
424 1 0.486616 0.0145157 0.211345
425 1 0.460173 0.965878 0.269581
426 1 0.772562 0.953846 0.183816
427 1 0.773586 0.91896 0.114743
428 1 0.59164 0.0982205 0.0677741
429 1 0.64372 0.197716 0.143695
430 1 0.768023 0.122302 0.0299664
431 1 0.767047 0.942107 0.0534606
432 1 0.699957 0.106033 0.209384
433 1 0.863771 0.938987 0.0385614
434 1 0.966349 0.0169608 0.249049
435 1 0.75327 0.131363 0.114799
436 1 0.837456 0.105662 0.188359
437 1 0.810082 0.0837495 0.0719994
438 1 0.730696 0.0895732 0.902425
439 1 0.788669 0.0104122 0.951265
440 1 0.81396 0.0487256 0.145246
441 1 0.0608772 0.053884 0.988255
442 1 0.0453648 0.153761 0.0327483
443 1 0.00741377 0.207195 0.0117364
444 1 0.0204829 0.102615 0.114713
445 1 0.225875 0.97782 0.93282
446 1 0.0545008 0.209099 0.0623281
447 1 0.987347 0.116348 0.299706
448 1 0.322611 0.0188618 0.156539
449 1 0.129586 0.161819 0.330137
450 1 0.130346 0.207517 0.212211
451 1 0.509393 0.0345673 0.0772725
452 1 0.233133 0.955216 0.24337
453 1 0.242911 0.0767197 0.152201
454 1 0.396044 0.404711 0.0495733
455 1 0.414589 0.930586 0.178056
456 1 0.238563 0.336027 0.0271822
457 1 0.326242 0.209135 0.0685175
458 1 0.556 0.0720256 0.118461
459 1 0.610004 0.148028 0.119761
460 1 0.382801 0.167742 0.0414501
461 1 0.511361 0.845099 0.145493
462 1 0.269591 0.0411399 0.394579
463 1 0.424274 0.90713 0.235763
464 1 0.594172 0.205024 0.245557
465 1 0.589977 0.933087 0.106026
466 1 0.706105 0.163833 0.947558
467 1 0.607275 0.00362809 0.106864
468 1 0.715228 0.148142 0.250458
469 1 0.828942 0.368058 0.938545
470 1 0.567211 0.0392696 0.0635264
471 1 0.870679 0.105469 0.0783957
472 1 0.640275 0.173719 0.933685
473 1 0.901762 0.172575 0.262589
474 1 0.045752 0.217267 0.907883
475 1 0.973391 0.1349 0.923207
476 1 0.84925 0.105846 8.87196e-05
477 1 0.790228 0.02273 0.0573892
478 1 0.935151 0.195415 0.0607662
479 1 0.885898 0.0465646 0.18827
480 1 0.867472 0.0537923 0.115799
481 1 0.0278231 0.160481 0.955112
482 1 0.143624 0.278816 0.0318174
483 1 0.124632 0.126507 0.142309
484 1 0.911544 0.223424 0.12886
485 1 0.115817 0.0628986 0.158876
486 1 0.154161 0.2545 0.113142
487 1 0.195462 0.444838 0.249782
488 1 0.893878 0.239121 0.0518929
489 1 0.0799265 0.0913454 0.115594
490 1 0.305185 0.348251 0.147971
491 1 0.306429 0.262383 0.126621
492 1 0.208025 0.282245 0.0509879
493 1 0.188974 0.312928 0.92859
494 1 0.402644 0.0906516 0.12164
495 1 0.330509 0.253669 0.235421
496 1 0.273482 0.417345 0.180767
497 1 0.358883 0.100157 0.0246846
498 1 0.363498 0.060237 0.174442
499 1 0.392773 0.134761 0.21968
500 1 0.291313 0.0316957 0.953141
501 1 0.453147 0.184245 0.234434
502 1 0.484502 0.187011 0.101449
503 1 0.724286 0.321625 0.212873
504 1 0.461348 0.344171 0.169131
505 1 0.578952 0.0704465 0.00166075
506 1 0.684367 0.376791 0.20069
507 1 0.701953 0.08712 0.273261
508 1 0.694353 0.137654 0.0805242
509 1 0.666949 0.321033 0.0449037
510 1 0.744758 0.0729813 0.00809416
511 1 0.625061 0.0889786 0.115962
512 1 0.72299 0.136226 0.314207
513 1 0.697308 0.266288 0.249653
514 1 0.916029 0.300772 0.0461646
515 1 0.743678 0.254961 0.142668
516 1 0.896942 0.342416 0.978264
517 1 0.963211 0.165305 0.985958
518 1 0.869813 0.178803 0.0710329
519 1 0.0308328 0.261787 0.256521
520 1 0.90499 0.288712 0.964722
521 1 0.111036 0.329794 0.0492297
522 1 0.00796956 0.226215 0.0999258
523 1 0.908805 0.172996 0.184434
524 1 0.937114 0.340649 0.0993576
525 1 0.0596182 0.227885 0.965595
526 1 0.290478 0.338934 0.999068
527 1 0.0445057 0.306467 0.0707601
528 1 0.201379 0.220922 0.0193966
529 1 0.200199 0.299991 0.11719
530 1 0.255621 0.413331 0.0068067
531 1 0.110685 0.430529 0.158694
532 1 0.114187 0.409335 0.956572
533 1 0.317717 0.287625 0.0411218
534 1 0.148381 0.50859 0.0114661
535 1 0.411281 0.491118 0.0736164
536 1 0.36783 0.377799 0.231726
537 1 0.361419 0.397595 0.149251
538 1 0.630855 0.258086 0.0931941
539 1 0.493692 0.317657 0.112879
540 1 0.519293 0.480456 0.238945
541 1 0.524849 0.214368 0.922744
542 1 0.642044 0.163772 0.304565
543 1 0.590763 0.0402607 0.223909
544 1 0.483233 0.403989 0.86842
545 1 0.580201 0.193219 0.0372339
546 1 0.551276 0.329422 0.0603092
547 1 0.569004 0.288827 0.113086
548 1 0.72832 0.314852 0.149969
549 1 0.742641 0.213018 0.938924
550 1 0.895366 0.286879 0.156961
551 1 0.616664 0.207419 0.888093
552 1 0.825187 0.370416 0.122645
553 1 0.927674 0.21982 0.938064
554 1 0.783502 0.416737 0.132553
555 1 0.88033 0.27973 0.223454
556 1 0.799799 0.265123 0.326169
557 1 0.0263346 0.308278 0.972367
558 1 0.859872 0.422875 0.90276
559 1 0.836734 0.290517 0.164741
560 1 0.879155 0.324621 0.0882555
561 1 0.986493 0.281823 0.112559
562 1 0.828786 0.45873 0.128349
563 1 0.909116 0.364685 0.0422245
564 1 0.948297 0.287857 0.181275
565 1 0.240423 0.551347 0.939885
566 1 0.0780194 0.542528 0.947606
567 1 0.981281 0.320692 0.0554191
568 1 0.167974 0.445543 0.19534
569 1 0.169758 0.422552 0.0335647
570 1 0.995701 0.438233 0.119076
571 1 0.219295 0.346041 0.972187
572 1 2.3033e-05 0.379866 0.982217
573 1 0.188892 0.266927 0.982508
574 1 0.0576276 0.484878 0.90682
575 1 0.447959 0.359419 0.0716046
576 1 0.239998 0.266625 0.941832
577 1 0.311087 0.40727 0.110293
578 1 0.399404 0.175914 0.911071
579 1 0.591561 0.393335 0.937165
580 1 0.252869 0.575004 0.166367
581 1 0.57188 0.3996 0.0598529
582 1 0.486964 0.446732 0.145753
583 1 0.756682 0.465132 0.977939
584 1 0.485423 0.337346 0.0244899
585 1 0.520345 0.445585 0.0880089
586 1 0.631452 0.405024 0.0894252
587 1 0.508524 0.283956 0.0673237
588 1 0.329344 0.483977 0.239602
589 1 0.62147 0.238037 0.0111154
590 1 0.788336 0.334302 0.228001
591 1 0.729662 0.374148 0.158948
592 1 0.623451 0.406831 0.0100331
593 1 0.853557 0.278142 0.00453047
594 1 0.844182 0.34375 0.189915
595 1 0.816005 0.220542 0.0255186
596 1 0.832918 0.389426 0.22954
597 1 0.89823 0.501355 0.122007
598 1 0.781266 0.521421 0.0180858
599 1 0.93001 0.217039 0.318216
600 1 0.661573 0.564627 0.187752
601 1 0.086808 0.488637 0.212949
602 1 0.94098 0.600275 0.0512118
603 1 0.0300776 0.403259 0.197791
604 1 0.921215 0.705491 0.00589516
605 1 0.0568542 0.346717 0.0258529
606 1 0.225669 0.489168 0.0754158
607 1 0.949677 0.442642 0.967075
608 1 0.0150206 0.633948 0.0281898
609 1 0.224293 0.423377 0.0606592
610 1 0.208382 0.661274 0.100147
611 1 0.180799 0.61797 0.134674
612 1 0.112614 0.593914 0.975808
613 1 0.0539699 0.508891 0.053213
614 1 0.290502 0.551563 0.226661
615 1 0.108853 0.454655 0.0215522
616 1 0.419011 0.628229 0.316244
617 1 0.351619 0.456659 0.0842658
618 1 0.366243 0.328558 0.0346902
619 1 0.303343 0.595428 0.140848
620 1 0.290845 0.461324 0.957517
621 1 0.411317 0.541176 0.112656
622 1 0.578964 0.504282 0.267406
623 1 0.653646 0.457826 0.0335721
624 1 0.509767 0.365266 0.264851
625 1 0.572846 0.503982 0.993622
626 1 0.791503 0.367067 0.176405
627 1 0.682212 0.409683 0.0660176
628 1 0.596306 0.429016 0.236602
629 1 0.603767 0.557916 0.173792
630 1 0.664411 0.699327 0.0958856
631 1 0.755168 0.455305 0.0929976
632 1 0.723479 0.538439 0.249773
633 1 0.829265 0.52189 0.299541
634 1 0.843496 0.560131 0.214449
635 1 0.749755 0.463896 0.15654
636 1 0.818392 0.622686 0.11863
637 1 0.69271 0.448031 0.193104
638 1 0.794726 0.619356 0.0539381
639 1 0.084181 0.388822 0.0600958
640 1 0.924426 0.550136 0.173707
641 1 0.088005 0.579831 0.212084
642 1 0.12824 0.580473 0.0990438
643 1 0.196554 0.741707 0.119207
644 1 0.0948928 0.832994 0.30897
645 1 0.992326 0.51435 0.172534
646 1 0.326755 0.616454 0.0816852
647 1 0.126782 0.760423 0.157611
648 1 0.115047 0.701748 0.11297
649 1 0.177901 0.534988 0.130575
650 1 0.213139 0.775332 0.0665736
651 1 0.183485 0.529849 0.0647808
652 1 0.26581 0.669375 0.0832108
653 1 0.233672 0.593224 0.991305
654 1 0.219699 0.621884 0.238278
655 1 0.132816 0.616159 0.18043
656 1 0.365237 0.630317 0.145374
657 1 0.275271 0.764023 0.0751928
658 1 0.497729 0.625683 0.175944
659 1 0.351538 0.546054 0.24093
660 1 0.461949 0.748549 0.0794307
661 1 0.51895 0.548735 0.133622
662 1 0.452837 0.687959 0.0692538
663 1 0.499431 0.679678 0.263602
664 1 0.414769 0.57212 0.163969
665 1 0.600088 0.614324 0.136625
666 1 0.818707 0.662822 0.374139
667 1 0.552588 0.549603 0.349714
668 1 0.763571 0.561411 0.134987
669 1 0.648677 0.63412 0.0933872
670 1 0.82437 0.559911 0.999337
671 1 0.763586 0.481731 0.214104
672 1 0.804836 0.651004 0.243292
673 1 0.780691 0.672968 0.0995365
674 1 0.782642 0.601798 0.22596
675 1 0.0218341 0.667387 0.945303
676 1 0.870163 0.589969 0.170062
677 1 0.701443 0.579128 0.13852
678 1 0.934767 0.640085 0.0996995
679 1 0.870288 0.710311 0.0518967
680 1 0.913461 0.577443 0.231431
681 1 0.156404 0.786708 0.208288
682 1 0.965299 0.661088 0.0451111
683 1 0.991456 0.609769 0.0876974
684 1 0.942978 0.884343 0.273492
685 1 0.0953834 0.761961 0.0998361
686 1 0.0414939 0.702673 0.0216988
687 1 0.263931 0.852489 0.0777305
688 1 0.262443 0.754937 0.142579
689 1 0.353088 0.568725 0.099436
690 1 0.346893 0.913212 0.154427
691 1 0.325124 0.849174 0.297861
692 1 0.0814405 0.761075 0.319129
693 1 0.339087 0.642315 0.204607
694 1 0.480883 0.791632 0.120637
695 1 0.439262 0.670274 0.25691
696 1 0.516938 0.682466 0.137844
697 1 0.4481 0.627834 0.0525772
698 1 0.411135 0.668039 0.9296
699 1 0.481303 0.435151 0.258119
700 1 0.494536 0.855324 0.267735
701 1 0.495885 0.774691 0.999792
702 1 0.5547 0.799211 0.00329995
703 1 0.5908 0.669415 0.0991742
704 1 0.228464 0.801077 0.116757
705 1 0.478301 0.639653 0.993254
706 1 0.690372 0.783234 0.0943398
707 1 0.778596 0.686678 0.324289
708 1 0.729344 0.608445 0.257636
709 1 0.645258 0.681617 0.145378
710 1 0.841001 0.660127 0.0772269
711 1 0.604317 0.553382 0.232459
712 1 0.760951 0.697223 0.150244
713 1 0.71959 0.715132 0.97055
714 1 0.025931 0.785192 0.208996
715 1 0.871252 0.644898 0.211959
716 1 0.838822 0.556498 0.121293
717 1 0.749574 0.747913 0.0740439
718 1 0.811071 0.719721 0.0514704
719 1 0.140538 0.742082 0.270963
720 1 0.745832 0.793315 0.124761
721 1 0.966175 0.841144 0.0914333
722 1 0.193475 0.866619 0.115776
723 1 0.220165 0.789454 0.229282
724 1 0.0272253 0.684663 0.182156
725 1 0.0580712 0.82859 0.0249015
726 1 0.183919 0.0949838 0.0422655
727 1 0.993072 0.589571 0.316081
728 1 0.0390629 0.0795718 0.044662
729 1 0.0387592 0.852738 0.126935
730 1 0.193003 0.942905 0.0330897
731 1 0.187263 0.736977 0.193742
732 1 0.304428 0.730625 0.185525
733 1 0.31745 0.857073 0.168762
734 1 0.48751 0.797943 0.241848
735 1 0.37193 0.661788 0.264649
736 1 0.424189 0.847138 0.0702325
737 1 0.537274 0.698584 0.202877
738 1 0.628576 0.887252 0.0727555
739 1 0.490019 0.845466 0.0788659
740 1 0.30809 0.791094 0.192782
741 1 0.765424 0.873321 0.25556
742 1 0.664486 0.873067 0.180973
743 1 0.581122 0.906731 0.0469546
744 1 0.507975 0.932103 0.302311
745 1 0.476829 0.898156 0.179501
746 1 0.720826 0.900699 0.0773834
747 1 0.567508 0.742681 0.108
748 1 0.355658 0.705499 0.209304
749 1 0.709677 0.520066 0.18128
750 1 0.765676 0.852432 0.132011
751 1 0.609146 0.717762 0.0583021
752 1 0.670891 0.892698 0.119078
753 1 0.821193 0.853879 0.946951
754 1 0.0719185 0.093121 0.886986
755 1 0.656293 0.746858 0.168755
756 1 0.728735 0.827477 0.240572
757 1 0.933617 0.778314 0.106771
758 1 0.882257 0.954364 0.100729
759 1 0.963697 0.782038 0.19324
760 1 0.817882 0.664435 0.0168152
761 1 0.0612711 0.728996 0.163505
762 1 0.985673 0.0312941 0.125241
763 1 0.0668462 0.977832 0.0427421
764 1 0.955789 0.101149 0.0993195
765 1 0.118141 0.869008 0.0107761
766 1 0.142305 0.145497 0.0290288
767 1 0.168026 0.0235494 0.29492
768 1 0.936091 0.884954 0.184821
769 1 0.455749 0.853236 0.223905
770 1 0.960677 0.976973 0.916793
771 1 0.182857 0.936986 0.0996374
772 1 0.135033 0.0301595 0.109493
773 1 0.44865 0.842232 0.141873
774 1 0.309903 0.0913036 0.182857
775 1 0.219803 0.898386 0.160337
776 1 0.221026 0.908068 0.395273
777 1 0.493681 0.996179 0.03506
778 1 0.613951 0.996933 0.266184
779 1 0.49252 0.937891 0.944725
780 1 0.327374 0.797518 0.0468257
781 1 0.464119 0.951857 0.2056
782 1 0.615182 0.921724 0.192493
783 1 0.363793 0.0203315 0.258721
784 1 0.674272 0.888546 0.0372059
785 1 0.558465 0.646642 0.226476
786 1 0.559389 0.841556 0.0570958
787 1 0.73068 0.727613 0.217114
788 1 0.448255 0.0119714 0.0772846
789 1 0.710896 0.966421 0.208767
790 1 0.710551 0.997447 0.157517
791 1 0.896141 0.774886 0.987693
792 1 0.550849 0.970973 0.370821
793 1 0.785077 0.764453 0.159375
794 1 0.599878 0.968503 0.162483
795 1 0.021437 0.0080137 0.0181943
796 1 0.770547 0.823771 0.182025
797 1 0.894431 0.950831 0.969836
798 1 0.922113 0.0522348 0.0815372
799 1 0.0840626 0.144629 0.235793
800 1 0.892044 0.00707071 0.928248
801 1 0.0335081 0.017118 0.0810313
802 1 0.102519 0.00685779 0.191304
803 1 0.186056 0.045693 0.182342
804 1 0.986427 0.0043212 0.190833
805 1 0.823045 0.965256 0.0740671
806 1 0.0744544 0.086933 0.252083
807 1 0.94962 0.030104 0.385549
808 1 0.172534 0.940134 0.273005
809 1 0.149192 0.988754 0.152149
810 1 0.217986 0.978093 0.311117
811 1 0.116494 0.93197 0.263868
812 1 0.212135 0.104579 0.223884
813 1 0.293099 0.00376166 0.32155
814 1 0.17998 0.0863184 0.136545
815 1 0.423299 0.0569188 0.351509
816 1 0.15972 0.987807 0.218997
817 1 0.383103 0.0691646 0.289627
818 1 0.385409 0.954979 0.37336
819 1 0.438724 0.927636 0.353114
820 1 0.27253 0.0741178 0.341096
821 1 0.554021 0.939466 0.217868
822 1 0.58747 0.151144 0.25943
823 1 0.597018 0.842398 0.287831
824 1 0.493092 0.0190732 0.281761
825 1 0.545229 0.964693 0.065464
826 1 0.659956 0.0368285 0.129604
827 1 0.865243 0.80617 0.143339
828 1 0.778921 0.102904 0.300384
829 1 0.951637 0.0655746 0.213263
830 1 0.870027 0.885766 0.363556
831 1 0.707316 0.838811 0.102024
832 1 0.651368 0.148323 0.182333
833 1 0.655396 0.816079 0.148004
834 1 0.922321 0.989145 0.140637
835 1 0.904013 0.112211 0.192001
836 1 0.846235 0.924146 0.199518
837 1 0.048622 0.0414315 0.137652
838 1 0.916054 0.339303 0.202757
839 1 0.0550982 0.962926 0.979369
840 1 0.840708 0.116268 0.323367
841 1 0.128036 0.0467935 0.230715
842 1 0.915141 0.204552 0.00218039
843 1 0.980396 0.201311 0.20551
844 1 0.0766879 0.133693 0.375013
845 1 0.928518 0.130573 0.303172
846 1 0.13932 0.196568 0.139876
847 1 0.0905326 0.195533 0.29528
848 1 0.0549306 0.0207636 0.324845
849 1 0.00436826 0.0753318 0.174407
850 1 0.250256 0.848272 0.227977
851 1 0.116259 0.0414472 0.419489
852 1 0.28506 0.215576 0.270924
853 1 0.348613 0.0951508 0.240246
854 1 0.386068 0.208796 0.0859751
855 1 0.539598 0.0239201 0.00225605
856 1 0.49469 0.235734 0.223872
857 1 0.387952 0.178613 0.324667
858 1 0.46579 0.143179 0.311993
859 1 0.533889 0.000692462 0.322033
860 1 0.332486 0.13019 0.339575
861 1 0.702755 0.135371 0.0162692
862 1 0.570719 0.18217 0.316522
863 1 0.431853 0.0147538 0.193928
864 1 0.598713 0.0319342 0.156809
865 1 0.452718 0.044687 0.142057
866 1 0.70328 0.191909 0.132848
867 1 0.659461 0.944177 0.153378
868 1 0.66883 0.334642 0.160484
869 1 0.686617 0.117887 0.145802
870 1 0.698073 0.0338718 0.206225
871 1 0.704917 0.210572 0.192087
872 1 0.834585 0.0527888 0.291014
873 1 0.903557 0.0440179 0.25284
874 1 0.856784 0.265188 0.114987
875 1 0.759718 0.0265403 0.191559
876 1 0.826714 0.112778 0.125827
877 1 0.765521 0.193626 0.134438
878 1 0.904147 0.108517 0.132802
879 1 0.0460047 0.219326 0.203812
880 1 0.833472 0.0429262 0.226926
881 1 0.147605 0.0946053 0.391055
882 1 0.888107 0.346757 0.147273
883 1 0.204349 0.0750144 0.324079
884 1 0.0952254 0.239548 0.167091
885 1 0.128827 0.272594 0.211284
886 1 0.852649 0.221878 0.248613
887 1 0.180171 0.168807 0.238993
888 1 0.138589 0.35198 0.32321
889 1 0.277976 0.245772 0.182823
890 1 0.925998 0.278538 0.102471
891 1 0.171988 0.329024 0.166816
892 1 0.253471 0.301342 0.148746
893 1 0.246708 0.103078 0.293524
894 1 0.41801 0.405976 0.181781
895 1 0.475439 0.253192 0.367571
896 1 0.222783 0.226805 0.229452
897 1 0.359534 0.126693 0.168701