ITEM: TIMESTEP
8500
ITEM: NUMBER OF ATOMS
4000
ITEM: BOX BOUNDS pp pp pp
0.0000000000000000e+00 1.6795961913825074e+01
0.0000000000000000e+00 1.6795961913825074e+01
0.0000000000000000e+00 1.6795961913825074e+01
ITEM: ATOMS id type xs ys zs
1 1 0.00232162 0.99907 0.996426
2 1 0.0531397 0.0502172 0.00197062
3 1 0.0509101 0.998884 0.0523849
4 1 0.00183466 0.0512565 0.052068
5 1 0.100808 0.999745 0.997551
6 1 0.15516 0.0496636 0.996082
7 1 0.14923 0.000980961 0.0490862
8 1 0.102189 0.0509885 0.0511011
9 1 0.201647 0.000105254 0.996572
10 1 0.250916 0.0512772 0.000580408
11 1 0.251579 0.999153 0.0495156
12 1 0.201172 0.0503293 0.0476057
13 1 0.305921 0.998935 0.00220952
14 1 0.351847 0.0504498 0.999907
15 1 0.351693 0.99958 0.0515614
16 1 0.300347 0.0508864 0.0477369
17 1 0.400383 0.000441041 0.999965
18 1 0.451482 0.0498925 0.999306
19 1 0.449764 0.0017457 0.0494409
20 1 0.399419 0.0523959 0.0510227
21 1 0.500153 0.000151506 0.998511
22 1 0.549481 0.050937 0.00629194
23 1 0.549725 0.999688 0.0505801
24 1 0.49924 0.0525138 0.0532721
25 1 0.597568 4.05938e-05 0.00444392
26 1 0.644907 0.0513371 0.998136
27 1 0.649117 0.000696569 0.0515095
28 1 0.598325 0.0501975 0.0525978
29 1 0.698612 0.000755602 0.00280733
30 1 0.748495 0.0458508 0.00225803
31 1 0.746511 0.997238 0.0516651
32 1 0.696882 0.0478481 0.050451
33 1 0.800584 0.998082 0.999463
34 1 0.851242 0.0487009 0.999824
35 1 0.850986 0.000357621 0.0483827
36 1 0.798382 0.0483724 0.0511257
37 1 0.90109 0.99921 0.998434
38 1 0.956457 0.0505921 0.00123023
39 1 0.949909 0.00116947 0.0482756
40 1 0.902515 0.048646 0.0480971
41 1 0.0034425 0.100166 0.00218128
42 1 0.0487854 0.152104 0.999862
43 1 0.0514136 0.0986813 0.0508523
44 1 0.00142864 0.149234 0.0498916
45 1 0.10496 0.099053 0.00231703
46 1 0.152274 0.151744 0.00160829
47 1 0.149676 0.100301 0.0531171
48 1 0.0971077 0.149515 0.0526142
49 1 0.202115 0.100027 0.998727
50 1 0.248906 0.149939 0.999201
51 1 0.248863 0.0992217 0.0470435
52 1 0.200517 0.148247 0.0477024
53 1 0.301928 0.0998514 0.999982
54 1 0.349106 0.152692 0.00305458
55 1 0.350101 0.102357 0.0540278
56 1 0.299557 0.149173 0.0533412
57 1 0.398452 0.10303 0.000483351
58 1 0.448716 0.149593 0.00227179
59 1 0.447909 0.0992981 0.0535313
60 1 0.397708 0.153728 0.0504905
61 1 0.499075 0.0978778 0.999834
62 1 0.545285 0.150943 6.60194e-05
63 1 0.55089 0.0973315 0.0541061
64 1 0.496906 0.150618 0.0502603
65 1 0.596887 0.102009 0.00382802
66 1 0.651722 0.149946 0.999422
67 1 0.652465 0.100307 0.0495516
68 1 0.603645 0.15011 0.0535016
69 1 0.69961 0.0934266 0.99853
70 1 0.750093 0.143824 0.00176542
71 1 0.750254 0.0971486 0.0481648
72 1 0.702221 0.147878 0.0491386
73 1 0.800114 0.0948999 0.0044329
74 1 0.850474 0.147767 0.00145561
75 1 0.850208 0.0952322 0.0497623
76 1 0.800562 0.14542 0.0507027
77 1 0.900281 0.0996452 0.99919
78 1 0.951057 0.149428 0.997891
79 1 0.951976 0.10001 0.0495521
80 1 0.901272 0.146021 0.0467517
81 1 0.000396457 0.202305 0.999418
82 1 0.0503848 0.250848 0.999733
83 1 0.0475161 0.198917 0.053545
84 1 0.999976 0.247178 0.0513199
85 1 0.0972366 0.201774 0.999669
86 1 0.150304 0.249893 0.00109151
87 1 0.150074 0.200622 0.0500342
88 1 0.0992291 0.248621 0.0500701
89 1 0.202434 0.197765 0.00101394
90 1 0.249316 0.248818 0.00043553
91 1 0.250615 0.19731 0.051869
92 1 0.204343 0.245147 0.0513778
93 1 0.296177 0.201271 0.000362198
94 1 0.34934 0.243484 0.999552
95 1 0.345196 0.202265 0.0519238
96 1 0.297864 0.250752 0.0488204
97 1 0.401953 0.201149 0.99699
98 1 0.449166 0.247547 0.997844
99 1 0.448706 0.201517 0.04788
100 1 0.397701 0.250561 0.048634
101 1 0.498855 0.200631 0.00184159
102 1 0.546743 0.252056 0.00116927
103 1 0.548988 0.20164 0.0497006
104 1 0.496931 0.254492 0.0496356
105 1 0.599967 0.200634 0.000719153
106 1 0.650423 0.249373 0.00209477
107 1 0.651843 0.197258 0.0488633
108 1 0.598846 0.25 0.0487947
109 1 0.703072 0.197815 0.999573
110 1 0.752046 0.245005 0.997956
111 1 0.752779 0.196521 0.0476652
112 1 0.704193 0.246681 0.0453949
113 1 0.799939 0.19559 0.999218
114 1 0.846618 0.2489 0.998199
115 1 0.852586 0.195015 0.0488832
116 1 0.802583 0.245756 0.0503943
117 1 0.896843 0.20049 0.995398
118 1 0.945633 0.248833 0.000156984
119 1 0.948457 0.197534 0.0482342
120 1 0.900156 0.247276 0.0502244
121 1 0.999763 0.297284 0.998991
122 1 0.0514255 0.350497 -7.7631e-06
123 1 0.0482714 0.298251 0.0503855
124 1 0.00135925 0.348256 0.0487588
125 1 0.103594 0.299858 0.998386
126 1 0.150213 0.348992 0.998041
127 1 0.152017 0.298947 0.0499839
128 1 0.0967458 0.350871 0.0532039
129 1 0.200053 0.299737 0.997951
130 1 0.247201 0.350114 0.996945
131 1 0.250948 0.300361 0.0476377
132 1 0.200476 0.350049 0.0544326
133 1 0.298973 0.297947 0.996057
134 1 0.353171 0.348149 0.000803485
135 1 0.348968 0.296289 0.0467759
136 1 0.303449 0.346783 0.0477139
137 1 0.403455 0.297267 0.00393205
138 1 0.449532 0.348421 0.00140724
139 1 0.450348 0.303218 0.0516019
140 1 0.398483 0.349365 0.0516341
141 1 0.499841 0.302798 0.999759
142 1 0.550713 0.353183 0.995767
143 1 0.550454 0.30475 0.0515277
144 1 0.500234 0.353051 0.0490136
145 1 0.597092 0.298018 0.000314433
146 1 0.649912 0.347398 0.997788
147 1 0.648581 0.300446 0.0474824
148 1 0.600171 0.351706 0.0488256
149 1 0.697832 0.299355 0.998522
150 1 0.749597 0.346553 0.999454
151 1 0.749619 0.296139 0.0494211
152 1 0.698576 0.352068 0.0475374
153 1 0.7972 0.298703 0.999044
154 1 0.850076 0.349308 0.998371
155 1 0.84951 0.298123 0.0503728
156 1 0.80126 0.346974 0.0492776
157 1 0.898456 0.298229 0.00142481
158 1 0.95361 0.348216 0.999162
159 1 0.949443 0.299426 0.048275
160 1 0.902465 0.350979 0.0499826
161 1 0.0027796 0.395749 0.00197612
162 1 0.0494124 0.447162 0.000852149
163 1 0.0502299 0.400449 0.0527073
164 1 0.998941 0.450022 0.0513793
165 1 0.100599 0.401772 0.00213116
166 1 0.151432 0.446556 0.00223124
167 1 0.150728 0.401644 0.0521653
168 1 0.100934 0.447866 0.0501326
169 1 0.198501 0.400392 0.00101405
170 1 0.254396 0.446891 0.999127
171 1 0.250199 0.400381 0.0533332
172 1 0.201504 0.449846 0.0500441
173 1 0.302833 0.399668 0.000726402
174 1 0.351296 0.44779 0.997786
175 1 0.350674 0.398182 0.0482605
176 1 0.303073 0.447758 0.0506456
177 1 0.403666 0.396148 0.998926
178 1 0.448966 0.451483 0.000508421
179 1 0.449468 0.399197 0.0498584
180 1 0.40157 0.450471 0.0492324
181 1 0.499567 0.397422 0.998771
182 1 0.550906 0.446315 0.994938
183 1 0.550723 0.401684 0.0507738
184 1 0.501617 0.450155 0.0483477
185 1 0.602475 0.400435 0.998454
186 1 0.64996 0.449453 0.000664597
187 1 0.648169 0.400086 0.0510647
188 1 0.602071 0.449357 0.0478825
189 1 0.701412 0.400099 5.3751e-05
190 1 0.753416 0.448288 0.997553
191 1 0.750577 0.398489 0.0485204
192 1 0.700415 0.450376 0.0454701
193 1 0.798725 0.400166 0.998284
194 1 0.848059 0.451262 0.996951
195 1 0.848642 0.399569 0.0478801
196 1 0.801236 0.448195 0.0501276
197 1 0.897474 0.39906 0.00197298
198 1 0.947975 0.451982 0.000316861
199 1 0.948979 0.399059 0.0485855
200 1 0.899864 0.446386 0.0499797
201 1 0.00219268 0.497517 0.00012981
202 1 0.0466085 0.552194 0.0010991
203 1 0.0520834 0.500244 0.0467285
204 1 0.999589 0.548525 0.0499018
205 1 0.105803 0.49471 0.0004433
206 1 0.149747 0.549896 0.99929
207 1 0.154349 0.501169 0.048348
208 1 0.101265 0.546361 0.0511002
209 1 0.201864 0.499747 0.000267991
210 1 0.252748 0.546247 0.998776
211 1 0.254247 0.496457 0.0495384
212 1 0.201043 0.550785 0.0459874
213 1 0.30486 0.498354 0.000818015
214 1 0.352045 0.549543 0.996439
215 1 0.352928 0.500648 0.048501
216 1 0.300727 0.548327 0.0485065
217 1 0.402409 0.497723 0.999737
218 1 0.450798 0.5506 0.999115
219 1 0.450201 0.498788 0.0498348
220 1 0.405783 0.547102 0.0483403
221 1 0.501321 0.499135 0.99645
222 1 0.547809 0.55019 0.99886
223 1 0.547082 0.499725 0.0472065
224 1 0.498978 0.547053 0.0500172
225 1 0.600339 0.501435 0.999341
226 1 0.648728 0.549432 0.997502
227 1 0.648695 0.499551 0.048967
228 1 0.596849 0.550517 0.0509391
229 1 0.703188 0.500186 0.996871
230 1 0.750743 0.551858 0.994834
231 1 0.752727 0.500839 0.0468808
232 1 0.699975 0.549664 0.0492368
233 1 0.798806 0.501226 0.994486
234 1 0.847571 0.547688 0.999996
235 1 0.850482 0.500168 0.0482274
236 1 0.798573 0.549255 0.0496726
237 1 0.898541 0.498468 1.00003
238 1 0.950749 0.548208 0.996406
239 1 0.950323 0.503042 0.0496783
240 1 0.898666 0.547276 0.0478579
241 1 0.998438 0.599356 0.999713
242 1 0.0472603 0.652947 0.997117
243 1 0.0445219 0.602452 0.0501854
244 1 0.996284 0.6515 0.044279
245 1 0.0986762 0.597474 0.998093
246 1 0.148296 0.65316 0.996976
247 1 0.146775 0.60028 0.0465583
248 1 0.0968767 0.650507 0.044518
249 1 0.200423 0.597436 0.998316
250 1 0.25025 0.652235 0.998325
251 1 0.251374 0.599169 0.0493006
252 1 0.198617 0.648027 0.0467944
253 1 0.300576 0.600976 0.998806
254 1 0.350933 0.650864 0.00238307
255 1 0.355381 0.597122 0.0512353
256 1 0.298071 0.6499 0.0494175
257 1 0.401353 0.601238 0.999303
258 1 0.451996 0.652034 0.00280803
259 1 0.447623 0.600383 0.0488548
260 1 0.399615 0.650756 0.0497947
261 1 0.498796 0.601452 0.00188664
262 1 0.548638 0.648326 0.000808877
263 1 0.550134 0.597432 0.05023
264 1 0.498726 0.647851 0.055117
265 1 0.59873 0.601134 0.998361
266 1 0.650046 0.644294 0.999336
267 1 0.649457 0.595964 0.0501371
268 1 0.600482 0.645787 0.0513982
269 1 0.698581 0.594826 0.995498
270 1 0.747952 0.649759 0.99732
271 1 0.750551 0.596862 0.0468017
272 1 0.698397 0.643608 0.0443352
273 1 0.799091 0.598723 0.000140359
274 1 0.849297 0.647974 0.00217331
275 1 0.85145 0.597222 0.049555
276 1 0.800845 0.649642 0.0496239
277 1 0.900047 0.596655 0.997412
278 1 0.949118 0.649487 0.996138
279 1 0.948978 0.596081 0.0478535
280 1 0.901591 0.648222 0.0458738
281 1 0.000780328 0.703574 0.997796
282 1 0.0505723 0.752133 0.000903381
283 1 0.0473315 0.700817 0.0482878
284 1 0.997451 0.751959 0.0480473
285 1 0.100021 0.701569 0.997895
286 1 0.150261 0.753448 0.996932
287 1 0.14959 0.701371 0.0479709
288 1 0.0982757 0.748862 0.0482294
289 1 0.199689 0.69987 0.999761
290 1 0.255757 0.75046 0.00188891
291 1 0.247064 0.698047 0.0490051
292 1 0.201126 0.751325 0.0466976
293 1 0.302231 0.701178 0.000367948
294 1 0.354079 0.750918 0.000414225
295 1 0.353514 0.700966 0.0473488
296 1 0.30359 0.751231 0.053277
297 1 0.402587 0.699771 0.00107176
298 1 0.451594 0.749687 0.99752
299 1 0.451698 0.70075 0.0542379
300 1 0.401315 0.750815 0.0498853
301 1 0.499672 0.69907 0.997864
302 1 0.548482 0.74898 0.997889
303 1 0.54652 0.694814 0.0519477
304 1 0.501732 0.748825 0.048232
305 1 0.599332 0.700152 0.999791
306 1 0.648416 0.750188 0.997867
307 1 0.653879 0.698639 0.0444483
308 1 0.601509 0.747809 0.0481737
309 1 0.701274 0.700695 0.99638
310 1 0.750173 0.753042 0.99901
311 1 0.747828 0.698189 0.0470507
312 1 0.700125 0.752444 0.0497062
313 1 0.795761 0.6991 0.999152
314 1 0.847652 0.749717 0.000725336
315 1 0.853463 0.700041 0.0474349
316 1 0.800175 0.751034 0.0490193
317 1 0.900459 0.699081 0.99868
318 1 0.948619 0.751676 0.998726
319 1 0.949419 0.700865 0.0462466
320 1 0.899999 0.751227 0.0500558
321 1 0.00208285 0.805791 0.00136065
322 1 0.0533845 0.848416 0.999655
323 1 0.052488 0.802691 0.0522519
324 1 0.00141732 0.853818 0.0509133
325 1 0.10191 0.799666 0.000959392
326 1 0.149989 0.851342 0.999239
327 1 0.149387 0.798914 0.0509513
328 1 0.0966817 0.855592 0.0494701
329 1 0.200579 0.8009 0.999935
330 1 0.251299 0.853075 0.00274291
331 1 0.25017 0.800346 0.0493215
332 1 0.201939 0.850462 0.0508279
333 1 0.302237 0.801778 0.000780095
334 1 0.351458 0.854125 0.00307405
335 1 0.354977 0.800251 0.0491845
336 1 0.302683 0.851692 0.0480433
337 1 0.401332 0.800982 0.000695191
338 1 0.450144 0.847867 0.00193865
339 1 0.454103 0.797907 0.0475745
340 1 0.402266 0.851067 0.0495876
341 1 0.502643 0.797231 0.0013416
342 1 0.552833 0.846893 0.998655
343 1 0.554146 0.797557 0.0493227
344 1 0.501601 0.849344 0.0501224
345 1 0.601089 0.80007 0.995094
346 1 0.649739 0.851657 1.00002
347 1 0.650109 0.801824 0.0501094
348 1 0.59955 0.84873 0.052143
349 1 0.697896 0.798825 0.000146789
350 1 0.748052 0.848319 0.996587
351 1 0.748173 0.802628 0.0477959
352 1 0.700795 0.851012 0.0503224
353 1 0.799555 0.799655 0.999024
354 1 0.850193 0.850216 0.998557
355 1 0.850926 0.801915 0.0490121
356 1 0.799804 0.847501 0.0479733
357 1 0.902225 0.800991 0.000525012
358 1 0.951042 0.853957 0.00116586
359 1 0.950847 0.804418 0.0495075
360 1 0.900661 0.851019 0.046321
361 1 0.999646 0.902004 0.998543
362 1 0.0501523 0.951974 0.995951
363 1 0.0492721 0.903177 0.0455977
364 1 0.999619 0.951853 0.0469827
365 1 0.100926 0.901317 0.999549
366 1 0.152446 0.949574 0.997399
367 1 0.151429 0.903258 0.0486023
368 1 0.0984337 0.949175 0.0519549
369 1 0.200723 0.901674 0.99922
370 1 0.249623 0.949747 0.000397179
371 1 0.248023 0.90214 0.0512881
372 1 0.199259 0.95151 0.049455
373 1 0.29967 0.901479 0.000619058
374 1 0.349691 0.946683 0.0027448
375 1 0.352457 0.900839 0.0525823
376 1 0.300766 0.949972 0.0497414
377 1 0.401169 0.903182 8.94395e-05
378 1 0.45146 0.951768 0.00137714
379 1 0.452354 0.903735 0.0525411
380 1 0.401321 0.949221 0.049591
381 1 0.498078 0.89929 0.00190016
382 1 0.552353 0.946141 0.998673
383 1 0.54938 0.902469 0.0512638
384 1 0.502052 0.952418 0.0514745
385 1 0.601346 0.897848 0.000522994
386 1 0.651705 0.947209 0.00103258
387 1 0.649657 0.898275 0.046775
388 1 0.59781 0.949328 0.0524167
389 1 0.701743 0.897853 0.998235
390 1 0.74988 0.950389 0.00213958
391 1 0.751386 0.896514 0.0479028
392 1 0.700819 0.944388 0.0487106
393 1 0.800441 0.899109 0.998091
394 1 0.850159 0.949136 0.000971196
395 1 0.848427 0.899124 0.0489143
396 1 0.801484 0.947735 0.0513816
397 1 0.901094 0.899147 0.997627
398 1 0.949624 0.950934 0.9964
399 1 0.95005 0.90369 0.0522368
400 1 0.901419 0.952826 0.0479536
401 1 0.997393 0.000212639 0.0975916
402 1 0.047582 0.0471801 0.0993636
403 1 0.0473728 0.00250884 0.153455
404 1 0.995788 0.0511169 0.149549
405 1 0.0993328 0.00074467 0.101548
406 1 0.150917 0.0490371 0.0969872
407 1 0.149151 0.00116058 0.150643
408 1 0.098453 0.0486418 0.150945
409 1 0.199104 0.000218441 0.0992594
410 1 0.246828 0.0504293 0.100711
411 1 0.252958 0.997431 0.147573
412 1 0.197824 0.0468978 0.151373
413 1 0.30181 0.994881 0.102199
414 1 0.351498 0.048976 0.0987601
415 1 0.353243 0.00335021 0.152832
416 1 0.300513 0.0488318 0.148097
417 1 0.401772 0.00280591 0.0999674
418 1 0.449905 0.0521061 0.104918
419 1 0.450087 0.000819291 0.150016
420 1 0.400294 0.0508808 0.152076
421 1 0.497227 0.999656 0.101796
422 1 0.546622 0.0483877 0.103261
423 1 0.553288 0.997445 0.15167
424 1 0.499852 0.0498081 0.15137
425 1 0.599113 0.998686 0.0976003
426 1 0.648396 0.0505166 0.101699
427 1 0.652048 0.00271288 0.15112
428 1 0.601687 0.0511974 0.152467
429 1 0.700037 0.998551 0.099784
430 1 0.749662 0.0484539 0.100792
431 1 0.748574 0.000492781 0.151432
432 1 0.699353 0.0502679 0.150229
433 1 0.799074 0.997198 0.0999067
434 1 0.850073 0.0492727 0.101844
435 1 0.848668 0.998074 0.15072
436 1 0.802138 0.0526587 0.152497
437 1 0.900441 0.00234335 0.0947508
438 1 0.951056 0.0519371 0.0997769
439 1 0.945409 0.000768714 0.14862
440 1 0.895694 0.0496662 0.152418
441 1 0.999928 0.102319 0.0998511
442 1 0.0511984 0.14937 0.103108
443 1 0.0464214 0.0966568 0.151032
444 1 0.997488 0.145518 0.151843
445 1 0.0960029 0.0998345 0.104405
446 1 0.145334 0.147932 0.101317
447 1 0.148768 0.0948265 0.152418
448 1 0.102356 0.147288 0.151706
449 1 0.198864 0.0975511 0.101445
450 1 0.247191 0.145688 0.0984873
451 1 0.248837 0.0971026 0.15068
452 1 0.195518 0.145272 0.148749
453 1 0.302648 0.0992668 0.101768
454 1 0.348407 0.154476 0.0971662
455 1 0.34984 0.101699 0.148083
456 1 0.300407 0.147082 0.147762
457 1 0.399884 0.101645 0.102131
458 1 0.446064 0.150382 0.101076
459 1 0.450738 0.103124 0.151596
460 1 0.397895 0.152221 0.149306
461 1 0.498319 0.0988885 0.103739
462 1 0.550606 0.152183 0.103206
463 1 0.548995 0.103023 0.146958
464 1 0.495242 0.152156 0.153205
465 1 0.600947 0.101524 0.102294
466 1 0.651074 0.150611 0.100784
467 1 0.652348 0.0991138 0.149916
468 1 0.600021 0.149996 0.14983
469 1 0.700461 0.0992139 0.103172
470 1 0.752638 0.145055 0.099617
471 1 0.751609 0.0996862 0.147504
472 1 0.701288 0.149176 0.14749
473 1 0.805602 0.097823 0.101208
474 1 0.851224 0.15155 0.102438
475 1 0.85057 0.0998078 0.15256
476 1 0.80028 0.147242 0.152203
477 1 0.898972 0.100437 0.100281
478 1 0.947216 0.147682 0.0996347
479 1 0.946399 0.0984215 0.151868
480 1 0.899545 0.149545 0.149465
481 1 0.997589 0.19561 0.102726
482 1 0.0522546 0.249861 0.1047
483 1 0.0543547 0.199716 0.149542
484 1 0.00101371 0.245203 0.150889
485 1 0.101624 0.200705 0.101658
486 1 0.153421 0.249706 0.100166
487 1 0.149505 0.192326 0.150893
488 1 0.100633 0.249314 0.152166
489 1 0.201218 0.194583 0.10085
490 1 0.250342 0.250068 0.103425
491 1 0.247543 0.195188 0.149946
492 1 0.202066 0.247472 0.152538
493 1 0.297963 0.20012 0.0994037
494 1 0.34813 0.252464 0.100203
495 1 0.347402 0.200034 0.14664
496 1 0.301762 0.250396 0.152734
497 1 0.397888 0.201292 0.0976714
498 1 0.45003 0.249437 0.0957296
499 1 0.446045 0.202047 0.152601
500 1 0.397075 0.250301 0.148448
501 1 0.499601 0.202395 0.0976817
502 1 0.54777 0.252619 0.0983065
503 1 0.549701 0.20384 0.148916
504 1 0.499517 0.251205 0.149352
505 1 0.596707 0.202786 0.101109
506 1 0.649604 0.250108 0.101177
507 1 0.650259 0.19965 0.147267
508 1 0.597972 0.254562 0.149784
509 1 0.704656 0.197613 0.0987756
510 1 0.751583 0.249245 0.0958252
511 1 0.753831 0.198702 0.150785
512 1 0.70193 0.250573 0.151196
513 1 0.799291 0.194946 0.0997643
514 1 0.847009 0.247264 0.101751
515 1 0.84788 0.19911 0.151312
516 1 0.796071 0.250364 0.149259
517 1 0.899177 0.197781 0.102893
518 1 0.952171 0.246281 0.0996719
519 1 0.951091 0.198194 0.150952
520 1 0.900239 0.249165 0.147911
521 1 0.00121469 0.297673 0.0999639
522 1 0.0478136 0.349155 0.0985535
523 1 0.0515137 0.300223 0.150986
524 1 0.00186917 0.351152 0.150565
525 1 0.100279 0.299321 0.100085
526 1 0.147643 0.353188 0.10422
527 1 0.147751 0.30025 0.153326
528 1 0.0984237 0.350085 0.151554
529 1 0.202657 0.298688 0.100649
530 1 0.250725 0.351244 0.0991053
531 1 0.250644 0.295383 0.154416
532 1 0.203988 0.346159 0.150458
533 1 0.296367 0.299679 0.102136
534 1 0.348257 0.349596 0.0995279
535 1 0.347795 0.300307 0.149976
536 1 0.298401 0.349185 0.150117
537 1 0.398855 0.301761 0.09802
538 1 0.447684 0.350927 0.102299
539 1 0.446751 0.298091 0.150259
540 1 0.398891 0.348835 0.150675
541 1 0.499834 0.302211 0.098854
542 1 0.548225 0.350013 0.100711
543 1 0.547414 0.302127 0.149825
544 1 0.499881 0.349939 0.151959
545 1 0.600025 0.30397 0.100356
546 1 0.647812 0.350675 0.0987999
547 1 0.649721 0.301267 0.153402
548 1 0.598622 0.354869 0.148885
549 1 0.701157 0.297847 0.0973082
550 1 0.75114 0.350435 0.0965666
551 1 0.74913 0.301624 0.144984
552 1 0.699019 0.350143 0.148574
553 1 0.798678 0.300064 0.0994726
554 1 0.853607 0.34898 0.100795
555 1 0.852915 0.299965 0.147247
556 1 0.799264 0.350007 0.147019
557 1 0.902028 0.29746 0.0963624
558 1 0.952394 0.348728 0.0984999
559 1 0.9528 0.299714 0.148247
560 1 0.900394 0.352199 0.148341
561 1 0.000644353 0.396961 0.0968354
562 1 0.0528861 0.451241 0.0976152
563 1 0.0470459 0.400971 0.151332
564 1 0.00087585 0.447623 0.14881
565 1 0.101513 0.402536 0.101734
566 1 0.151314 0.452333 0.0997835
567 1 0.153112 0.399722 0.151448
568 1 0.0984541 0.448995 0.149638
569 1 0.200258 0.398636 0.102221
570 1 0.253208 0.450082 0.0991161
571 1 0.249839 0.400892 0.151415
572 1 0.199606 0.448964 0.150455
573 1 0.298599 0.400805 0.102958
574 1 0.352561 0.452043 0.0994004
575 1 0.350842 0.400499 0.148428
576 1 0.301722 0.453507 0.148295
577 1 0.401233 0.396898 0.0963011
578 1 0.454163 0.449164 0.0989256
579 1 0.448635 0.398239 0.147729
580 1 0.400839 0.447445 0.15077
581 1 0.499404 0.400811 0.0981638
582 1 0.551701 0.449694 0.100795
583 1 0.548748 0.400251 0.151603
584 1 0.505885 0.450902 0.151144
585 1 0.597725 0.401396 0.0993418
586 1 0.648847 0.44894 0.0998673
587 1 0.650642 0.399394 0.145993
588 1 0.597669 0.450429 0.151886
589 1 0.699232 0.397725 0.0976441
590 1 0.749273 0.443633 0.0986941
591 1 0.749149 0.401617 0.153817
592 1 0.700581 0.450665 0.148943
593 1 0.797024 0.399831 0.100528
594 1 0.847184 0.451849 0.100249
595 1 0.852558 0.399761 0.150757
596 1 0.801119 0.449653 0.151815
597 1 0.901119 0.399699 0.097734
598 1 0.950166 0.446943 0.0978909
599 1 0.950856 0.401773 0.146241
600 1 0.900297 0.450333 0.149788
601 1 0.000902423 0.499619 0.0997625
602 1 0.0470045 0.550675 0.101612
603 1 0.0493605 0.499145 0.150535
604 1 0.998013 0.553302 0.147921
605 1 0.100109 0.499464 0.0994987
606 1 0.148662 0.549227 0.101116
607 1 0.145069 0.49747 0.15254
608 1 0.0995914 0.54931 0.148653
609 1 0.201066 0.498354 0.0995041
610 1 0.250757 0.550409 0.0989884
611 1 0.249506 0.499756 0.146869
612 1 0.198482 0.547372 0.149579
613 1 0.301457 0.500133 0.0983778
614 1 0.350371 0.547247 0.0983685
615 1 0.350432 0.499558 0.153739
616 1 0.300516 0.548498 0.148934
617 1 0.403472 0.498725 0.100589
618 1 0.448176 0.549942 0.09902
619 1 0.452773 0.497448 0.148369
620 1 0.402502 0.546244 0.149509
621 1 0.49941 0.50266 0.100167
622 1 0.548754 0.546668 0.0974068
623 1 0.550828 0.503366 0.151019
624 1 0.498487 0.547522 0.149312
625 1 0.595999 0.499303 0.0990351
626 1 0.649404 0.545284 0.0994043
627 1 0.648769 0.497574 0.149963
628 1 0.598554 0.550161 0.148721
629 1 0.700372 0.503216 0.100605
630 1 0.751131 0.552105 0.0966463
631 1 0.749846 0.504175 0.150681
632 1 0.699459 0.551411 0.150782
633 1 0.79805 0.496961 0.100374
634 1 0.849686 0.549981 0.103431
635 1 0.851572 0.501536 0.151304
636 1 0.79874 0.549943 0.149074
637 1 0.901163 0.501344 0.0945201
638 1 0.949956 0.550765 0.0978426
639 1 0.951382 0.499482 0.148801
640 1 0.900867 0.548679 0.147357
641 1 0.995214 0.603083 0.0971883
642 1 0.0460232 0.649694 0.0986916
643 1 0.0494632 0.603643 0.148714
644 1 0.000179012 0.651711 0.147751
645 1 0.0984895 0.600246 0.101979
646 1 0.151577 0.646194 0.0992293
647 1 0.146523 0.595575 0.150725
648 1 0.0967949 0.653245 0.15013
649 1 0.2004 0.5966 0.0984129
650 1 0.245577 0.649094 0.0985554
651 1 0.250163 0.596869 0.149704
652 1 0.201642 0.650115 0.149359
653 1 0.303293 0.600159 0.0988902
654 1 0.348811 0.649932 0.0974716
655 1 0.354079 0.600423 0.149362
656 1 0.299989 0.649561 0.150327
657 1 0.400622 0.599458 0.0996866
658 1 0.449637 0.648536 0.102482
659 1 0.450624 0.596679 0.149419
660 1 0.399879 0.649515 0.152735
661 1 0.50128 0.597669 0.10274
662 1 0.550622 0.644618 0.103639
663 1 0.55175 0.595361 0.149287
664 1 0.503462 0.649372 0.149912
665 1 0.60118 0.598292 0.100787
666 1 0.648235 0.648163 0.0990082
667 1 0.649539 0.594761 0.152015
668 1 0.601212 0.64538 0.149762
669 1 0.696385 0.598606 0.0995489
670 1 0.746577 0.650198 0.0990284
671 1 0.749173 0.600527 0.146942
672 1 0.698266 0.651916 0.149422
673 1 0.802374 0.599343 0.0988646
674 1 0.848385 0.65287 0.102506
675 1 0.849308 0.598413 0.150885
676 1 0.79855 0.65125 0.151322
677 1 0.898288 0.597558 0.0992762
678 1 0.95079 0.651142 0.0937748
679 1 0.950361 0.605746 0.147312
680 1 0.900134 0.650395 0.149542
681 1 0.997864 0.704075 0.0997504
682 1 0.04686 0.752067 0.0974487
683 1 0.0503219 0.703314 0.147057
684 1 0.00185513 0.750725 0.150653
685 1 0.096957 0.699655 0.0987311
686 1 0.149278 0.75174 0.0996375
687 1 0.150124 0.700689 0.146647
688 1 0.0990724 0.750618 0.149629
689 1 0.197846 0.699885 0.0949252
690 1 0.246737 0.747687 0.0983633
691 1 0.24984 0.699697 0.149826
692 1 0.198113 0.749766 0.14604
693 1 0.302611 0.697943 0.0977558
694 1 0.352925 0.750317 0.0995644
695 1 0.350175 0.697102 0.151841
696 1 0.30086 0.750714 0.145675
697 1 0.399715 0.698545 0.102151
698 1 0.449025 0.749972 0.102306
699 1 0.453762 0.699079 0.152083
700 1 0.397912 0.747558 0.149826
701 1 0.500822 0.703476 0.10309
702 1 0.551606 0.74876 0.0984662
703 1 0.551009 0.701094 0.149758
704 1 0.502566 0.748635 0.154796
705 1 0.598338 0.69834 0.0986265
706 1 0.652383 0.751852 0.0976194
707 1 0.648449 0.700504 0.144064
708 1 0.59928 0.749694 0.148757
709 1 0.700474 0.70041 0.099501
710 1 0.74814 0.751053 0.0956402
711 1 0.750657 0.699965 0.151212
712 1 0.697926 0.749697 0.149553
713 1 0.797463 0.699686 0.100462
714 1 0.850589 0.750462 0.0961576
715 1 0.852932 0.703607 0.148901
716 1 0.799785 0.75617 0.145547
717 1 0.902179 0.700267 0.0978647
718 1 0.950726 0.753187 0.0997568
719 1 0.950602 0.700872 0.148029
720 1 0.902984 0.7484 0.153295
721 1 0.999641 0.804716 0.0981496
722 1 0.0492017 0.855271 0.0968025
723 1 0.0501422 0.800772 0.150039
724 1 0.998556 0.851724 0.149841
725 1 0.100627 0.80015 0.102029
726 1 0.151588 0.852203 0.102898
727 1 0.150808 0.801857 0.149818
728 1 0.100375 0.850633 0.151886
729 1 0.1978 0.799626 0.09924
730 1 0.250915 0.850098 0.099383
731 1 0.250682 0.797891 0.148423
732 1 0.203194 0.848919 0.149918
733 1 0.298728 0.800537 0.097971
734 1 0.352169 0.847641 0.0986078
735 1 0.349474 0.800489 0.147978
736 1 0.300329 0.851791 0.15151
737 1 0.40333 0.801339 0.100195
738 1 0.451566 0.850153 0.0944069
739 1 0.450103 0.800243 0.152981
740 1 0.399029 0.849848 0.149479
741 1 0.500253 0.795378 0.100015
742 1 0.546557 0.853057 0.102537
743 1 0.549528 0.799944 0.151986
744 1 0.497364 0.851412 0.149004
745 1 0.599546 0.797975 0.099751
746 1 0.650335 0.84836 0.10381
747 1 0.64592 0.798358 0.151928
748 1 0.597833 0.846844 0.153662
749 1 0.698778 0.801691 0.0977854
750 1 0.74717 0.851417 0.0986134
751 1 0.747457 0.798905 0.147588
752 1 0.700559 0.850223 0.149415
753 1 0.8006 0.802997 0.096294
754 1 0.848783 0.851828 0.097141
755 1 0.852098 0.801704 0.146606
756 1 0.798792 0.850411 0.147853
757 1 0.901863 0.800903 0.0974609
758 1 0.9505 0.85094 0.100509
759 1 0.95206 0.801555 0.150137
760 1 0.903453 0.850952 0.148751
761 1 0.999421 0.903432 0.101755
762 1 0.0491947 0.952417 0.100705
763 1 0.0488259 0.903673 0.149727
764 1 0.998183 0.951359 0.149421
765 1 0.0992661 0.900508 0.104714
766 1 0.148359 0.951668 0.101798
767 1 0.152073 0.898643 0.152446
768 1 0.0983153 0.953515 0.152206
769 1 0.199567 0.901418 0.102064
770 1 0.250403 0.949757 0.100272
771 1 0.253955 0.901368 0.153901
772 1 0.200214 0.951334 0.152183
773 1 0.299939 0.899126 0.0987027
774 1 0.353444 0.951426 0.102042
775 1 0.351181 0.902411 0.149049
776 1 0.304412 0.95197 0.153648
777 1 0.404761 0.901269 0.101405
778 1 0.447686 0.952389 0.0996284
779 1 0.451031 0.898207 0.149284
780 1 0.399758 0.951281 0.150042
781 1 0.501374 0.906084 0.100717
782 1 0.549732 0.949251 0.101567
783 1 0.549268 0.901181 0.148722
784 1 0.500793 0.951631 0.152096
785 1 0.600012 0.897449 0.0989135
786 1 0.650487 0.950624 0.0981525
787 1 0.64962 0.899727 0.151364
788 1 0.598987 0.949717 0.149387
789 1 0.697377 0.899852 0.100814
790 1 0.748637 0.947702 0.101272
791 1 0.749131 0.901041 0.152003
792 1 0.700626 0.949582 0.150678
793 1 0.802634 0.901359 0.104111
794 1 0.851614 0.949444 0.0969863
795 1 0.850701 0.899774 0.151772
796 1 0.798537 0.949358 0.15205
797 1 0.899076 0.896281 0.0980206
798 1 0.948201 0.952182 0.0991467
799 1 0.950791 0.901622 0.148016
800 1 0.899227 0.948627 0.151373
801 1 0.998143 0.000538624 0.199314
802 1 0.0466051 0.0499657 0.202698
803 1 0.047092 0.000730367 0.249434
804 1 0.999184 0.0471479 0.253697
805 1 0.0973054 0.000318302 0.198492
806 1 0.148862 0.0521512 0.204669
807 1 0.149193 0.999309 0.251477
808 1 0.099499 0.0484991 0.252705
809 1 0.199942 0.996121 0.199963
810 1 0.250122 0.0500824 0.198961
811 1 0.250088 0.0038131 0.252259
812 1 0.197374 0.0532127 0.252968
813 1 0.29933 0.00328445 0.199974
814 1 0.347835 0.0535384 0.202617
815 1 0.348937 0.000831035 0.253423
816 1 0.301127 0.0494338 0.250897
817 1 0.399829 0.00198717 0.201531
818 1 0.450559 0.0497411 0.202519
819 1 0.451707 0.999547 0.253315
820 1 0.396728 0.0520033 0.249493
821 1 0.501892 0.00304279 0.202746
822 1 0.55037 0.0485667 0.196522
823 1 0.551193 0.00369435 0.250421
824 1 0.50008 0.0511758 0.252429
825 1 0.598296 0.998823 0.201361
826 1 0.649192 0.0492701 0.199784
827 1 0.647818 0.000368034 0.249967
828 1 0.599197 0.0547834 0.250141
829 1 0.698595 0.000468636 0.199158
830 1 0.74859 0.0507965 0.199646
831 1 0.749301 0.998656 0.251993
832 1 0.699606 0.0502128 0.251161
833 1 0.801435 0.999214 0.202903
834 1 0.851095 0.0514444 0.201234
835 1 0.846774 0.999152 0.251374
836 1 0.79663 0.0499497 0.251818
837 1 0.89701 0.00114423 0.200646
838 1 0.949389 0.046985 0.201318
839 1 0.949057 0.999132 0.251921
840 1 0.899171 0.0508618 0.25176
841 1 0.999118 0.0985884 0.20166
842 1 0.049204 0.149492 0.201962
843 1 0.0487595 0.0949015 0.250357
844 1 0.999875 0.149041 0.249124
845 1 0.10032 0.0963946 0.199294
846 1 0.14955 0.146362 0.199764
847 1 0.148988 0.0990448 0.252524
848 1 0.0989884 0.148178 0.250848
849 1 0.200169 0.0987799 0.199242
850 1 0.251554 0.150565 0.200279
851 1 0.251596 0.100489 0.253182
852 1 0.199207 0.148291 0.249835
853 1 0.300588 0.0986399 0.197304
854 1 0.349905 0.153889 0.202151
855 1 0.350504 0.103023 0.248254
856 1 0.299792 0.151357 0.247137
857 1 0.400617 0.0999131 0.201194
858 1 0.446363 0.153447 0.200408
859 1 0.453421 0.100269 0.251757
860 1 0.401057 0.150822 0.250012
861 1 0.50072 0.100352 0.197438
862 1 0.544964 0.153474 0.199974
863 1 0.550355 0.102977 0.248506
864 1 0.496379 0.152108 0.248629
865 1 0.599279 0.103518 0.202053
866 1 0.649645 0.149709 0.194641
867 1 0.651256 0.105134 0.246598
868 1 0.601344 0.153295 0.250303
869 1 0.701855 0.103183 0.198821
870 1 0.74993 0.153326 0.203711
871 1 0.747202 0.099813 0.253186
872 1 0.70006 0.151456 0.252679
873 1 0.799255 0.0990101 0.201993
874 1 0.852313 0.148185 0.199292
875 1 0.852037 0.101432 0.248759
876 1 0.799196 0.150628 0.251841
877 1 0.90192 0.0998042 0.20391
878 1 0.951845 0.149526 0.200778
879 1 0.949558 0.0999322 0.25084
880 1 0.900348 0.150832 0.25085
881 1 0.000413641 0.198168 0.199629
882 1 0.0485073 0.247322 0.202992
883 1 0.0511803 0.197844 0.254662
884 1 0.999629 0.248405 0.251087
885 1 0.100863 0.198797 0.198043
886 1 0.152654 0.248953 0.197894
887 1 0.147924 0.198115 0.252625
888 1 0.100465 0.247774 0.247884