ITEM: TIMESTEP
39900
ITEM: NUMBER OF ATOMS
4000
ITEM: BOX BOUNDS pp pp pp
0.0000000000000000e+00 1.6795961913825074e+01
0.0000000000000000e+00 1.6795961913825074e+01
0.0000000000000000e+00 1.6795961913825074e+01
ITEM: ATOMS id type xs ys zs
1 1 0.175694 0.0788888 0.0409235
2 1 0.959767 0.186818 0.906237
3 1 0.0108818 0.0044446 0.966035
4 1 0.326183 0.124722 0.10369
5 1 0.216543 0.942903 0.147817
6 1 0.293894 0.0664665 0.0737159
7 1 0.339559 0.977417 0.826133
8 1 0.0553346 0.0432085 0.0820601
9 1 0.429071 0.958989 0.0193859
10 1 0.308614 0.119536 0.0290034
11 1 0.905902 0.857822 0.06595
12 1 0.332611 0.165367 0.894873
13 1 0.30276 0.10594 0.164773
14 1 0.508694 0.954839 0.836692
15 1 0.436424 0.276914 0.0964265
16 1 0.162951 0.983696 0.104018
17 1 0.398158 0.93935 0.845937
18 1 0.463427 0.049229 0.896931
19 1 0.5147 0.853987 0.214285
20 1 0.373232 0.125035 0.308646
21 1 0.427963 0.926514 0.148887
22 1 0.399452 0.17617 0.0148442
23 1 0.597216 0.0114572 0.920566
24 1 0.762749 0.160529 0.762215
25 1 0.51463 0.79243 0.949328
26 1 0.692482 0.902572 0.144039
27 1 0.615495 0.130817 0.191454
28 1 0.632079 0.927508 0.971229
29 1 0.594077 0.99185 0.126827
30 1 0.840608 0.873964 0.820884
31 1 0.884502 -4.61138e-05 0.232693
32 1 0.774224 0.23462 0.121101
33 1 0.866173 0.909268 0.0533308
34 1 0.626988 0.0940666 0.786175
35 1 0.698398 0.923712 0.265859
36 1 0.823926 0.173238 0.855266
37 1 0.608945 0.0629454 0.968056
38 1 0.68206 0.00375319 0.826598
39 1 0.934619 0.984737 0.78149
40 1 0.941677 0.908287 0.957329
41 1 0.87376 0.140316 0.765663
42 1 0.0655121 0.933377 0.817192
43 1 0.103216 0.0463672 0.251518
44 1 0.0885803 0.986116 0.120959
45 1 0.984531 0.92901 0.0589076
46 1 0.443798 0.218693 0.0878612
47 1 0.261424 0.915172 0.0164196
48 1 0.266871 0.372493 0.160464
49 1 0.131397 0.928488 0.803259
50 1 0.345197 0.129297 0.198533
51 1 0.303997 0.850043 0.162667
52 1 0.0677143 0.325951 0.0396104
53 1 0.13486 0.132939 0.909923
54 1 0.507731 0.893838 0.835241
55 1 0.584488 0.113322 0.371463
56 1 0.376761 0.195017 0.0976923
57 1 0.600958 0.0838045 0.239427
58 1 0.600734 0.159562 0.984567
59 1 0.233977 0.111441 0.102302
60 1 0.41831 0.105032 0.0462655
61 1 0.490083 0.163837 0.905224
62 1 0.482386 0.287506 0.291888
63 1 0.663628 0.988928 0.0959132
64 1 0.501346 0.0114598 0.931487
65 1 0.561569 0.833364 0.84576
66 1 0.537768 0.0767026 0.0241263
67 1 0.468776 0.833891 0.155937
68 1 0.0861157 0.097549 0.0960068
69 1 0.584493 0.955761 0.878892
70 1 0.78975 0.125965 0.817006
71 1 0.708731 0.108604 0.0972283
72 1 0.607948 0.162055 0.874703
73 1 0.778821 0.0432296 0.870658
74 1 0.800959 0.0800043 0.0961492
75 1 0.652368 0.258311 0.921354
76 1 0.738588 0.128565 0.230153
77 1 0.726962 0.975655 0.0970399
78 1 0.828326 0.0302139 0.208154
79 1 0.0785574 0.0769069 0.822544
80 1 0.649998 0.426037 0.103307
81 1 0.136943 0.229348 0.977111
82 1 0.852977 0.201983 0.980285
83 1 0.940324 0.119056 0.0464836
84 1 0.185657 0.369368 0.0436629
85 1 0.817964 0.167402 0.783083
86 1 0.565401 0.472437 0.876698
87 1 0.546294 0.360447 0.897345
88 1 0.310305 0.188691 0.954448
89 1 0.294454 0.253548 0.135542
90 1 0.0859772 0.240795 0.94257
91 1 0.125752 0.177285 0.0135973
92 1 0.266576 0.210605 0.0511555
93 1 0.264512 0.175943 0.74014
94 1 0.307096 0.138983 0.780802
95 1 0.535112 0.0241934 0.132772
96 1 0.321513 0.0932069 0.97387
97 1 0.318148 0.070487 0.877683
98 1 0.455653 0.975092 0.170799
99 1 0.206953 0.179127 0.196585
100 1 0.58464 0.143787 0.0439653
101 1 0.645361 0.124002 0.847775
102 1 0.364778 0.11138 0.933383
103 1 0.761221 0.391336 0.965853
104 1 0.731517 0.21968 0.0104117
105 1 0.400737 0.0426819 0.139084
106 1 0.661041 0.0671079 0.736331
107 1 0.710725 0.91128 0.207651
108 1 0.557463 0.28834 0.1815
109 1 0.935849 0.879093 0.760266
110 1 0.943797 0.466178 0.0330748
111 1 0.798401 0.412775 0.0227377
112 1 0.810573 0.123048 0.0529294
113 1 0.992484 0.0394179 0.108227
114 1 0.601929 0.320791 0.0616946
115 1 0.759223 0.0363965 0.112223
116 1 0.704674 0.312869 0.0612185
117 1 0.0639737 0.236698 0.132098
118 1 0.823577 0.996551 0.0290403
119 1 0.862012 0.155867 0.289809
120 1 0.875503 0.153898 0.0752631
121 1 0.0977257 0.43002 0.975354
122 1 0.247309 0.345865 0.949048
123 1 0.869806 0.26945 0.996748
124 1 0.260693 0.592346 0.947118
125 1 0.154576 0.164024 0.957709
126 1 0.218497 0.461735 0.98592
127 1 0.996266 0.348632 0.753354
128 1 0.268211 0.422909 0.928755
129 1 0.451154 0.0916574 0.945551
130 1 0.566445 0.205304 0.0346102
131 1 0.0547213 0.240041 0.780259
132 1 0.445904 0.3129 0.036225
133 1 0.120873 0.238418 0.248969
134 1 0.417777 0.429509 0.793979
135 1 0.324247 0.46717 0.041416
136 1 0.434915 0.130443 0.194216
137 1 0.384699 0.278795 0.0180716
138 1 0.462035 0.113156 0.00544141
139 1 0.56229 0.404966 0.249377
140 1 0.271309 0.438049 0.0270484
141 1 0.550748 0.32641 0.842573
142 1 0.73037 0.403526 0.881328
143 1 0.531038 0.149574 0.00310854
144 1 0.633246 0.0505221 0.445714
145 1 0.842237 0.316894 0.935547
146 1 0.72466 0.431341 0.946167
147 1 0.63451 0.280702 0.156611
148 1 0.517734 0.21099 0.989888
149 1 0.813104 0.163702 0.00392207
150 1 0.709025 0.367569 0.0927849
151 1 0.868378 0.296122 0.158965
152 1 0.889419 0.34717 0.860471
153 1 0.830495 0.2525 0.0430639
154 1 0.783498 0.291645 0.923469
155 1 0.838995 0.365717 0.967805
156 1 0.989163 0.426364 0.977751
157 1 0.0735402 0.44428 0.0479235
158 1 0.244954 0.323994 0.891104
159 1 0.200436 0.232409 0.0874031
160 1 0.741273 0.444588 0.00869336
161 1 0.933894 0.158087 0.201557
162 1 0.147807 0.499868 0.0500644
163 1 0.0790437 0.563395 0.0544674
164 1 0.181554 0.597317 0.124662
165 1 0.138164 0.464712 0.927695
166 1 0.092007 0.501088 0.937951
167 1 0.980368 0.365383 0.18948
168 1 0.013879 0.493017 0.863214
169 1 0.321078 0.59078 0.945252
170 1 0.147877 0.504578 0.221218
171 1 0.434821 0.310339 0.91218
172 1 0.160691 0.268559 0.218727
173 1 0.399569 0.294407 0.966736
174 1 0.232495 0.510915 0.147298
175 1 0.212723 0.386385 0.138479
176 1 0.267023 0.170515 0.993774
177 1 0.621162 0.471456 0.844842
178 1 0.592602 0.515723 0.133165
179 1 0.371089 0.204927 0.921488
180 1 0.219082 0.492201 0.0493731
181 1 0.459338 0.546333 0.0705035
182 1 0.688132 0.178651 0.0472545
183 1 0.527476 0.335022 0.152597
184 1 0.370249 0.47201 0.940513
185 1 0.673325 0.516947 0.80343
186 1 0.752247 0.488605 0.109603
187 1 0.362336 0.36916 0.79348
188 1 0.415774 0.140559 0.970745
189 1 0.639637 0.210518 0.0324023
190 1 0.808299 0.306991 0.0738638
191 1 0.748583 0.27195 0.0801548
192 1 0.733065 0.536073 0.141307
193 1 0.594732 0.234186 0.13285
194 1 0.013273 0.324362 0.00671586
195 1 0.900429 0.509408 0.330598
196 1 0.804397 0.359554 0.907941
197 1 0.914221 0.448778 0.156937
198 1 0.12022 0.489239 0.123164
199 1 0.118842 0.290588 0.981693
200 1 0.867572 0.710754 0.739417
201 1 0.157477 0.663561 0.0804997
202 1 0.189278 0.851574 0.0279917
203 1 0.917865 0.652462 0.9259
204 1 0.00219338 0.709005 0.8418
205 1 0.266571 0.659532 0.824119
206 1 0.101801 0.867044 0.905743
207 1 0.0681139 0.656965 0.73627
208 1 0.0683412 0.4721 0.863621
209 1 0.173339 0.317913 0.259398
210 1 0.156185 0.743449 0.939248
211 1 0.377636 0.360623 0.126887
212 1 0.146491 0.887675 0.0745588
213 1 0.0196149 0.202501 0.0596575
214 1 0.296289 0.565208 0.00520696
215 1 0.383027 0.466688 0.842249
216 1 0.302955 0.480357 0.93468
217 1 0.294257 0.455872 0.143127
218 1 0.547201 0.505469 0.088956
219 1 0.285551 0.58834 0.326385
220 1 0.21407 0.581604 0.320579
221 1 0.63288 0.451247 0.0364341
222 1 0.710691 0.436147 0.114205
223 1 0.755019 0.48209 0.193481
224 1 0.509375 0.464789 0.0354266
225 1 0.446533 0.709323 0.932756
226 1 0.89411 0.346959 0.990112
227 1 0.40967 0.449073 0.0695867
228 1 0.478557 0.606577 0.983935
229 1 0.103095 0.667171 0.0527727
230 1 0.945531 0.465256 0.940334
231 1 0.84726 0.52089 0.208408
232 1 0.617151 0.463905 0.233901
233 1 0.984228 0.505218 0.0571457
234 1 0.853176 0.459355 0.0386324
235 1 0.0497007 0.390101 0.00665913
236 1 0.908839 0.593261 0.158182
237 1 0.861836 0.319617 0.233559
238 1 0.926328 0.529017 0.0554798
239 1 0.955236 0.403754 0.142263
240 1 0.896393 0.371968 0.15175
241 1 0.782561 0.749775 0.14328
242 1 0.12593 0.670727 0.699325
243 1 0.106906 0.62237 0.288651
244 1 0.115465 0.798994 0.985302
245 1 0.146225 0.851309 0.951085
246 1 0.255514 0.698059 0.000450991
247 1 6.73551e-05 0.46779 0.926392
248 1 0.0380159 0.521693 0.0293626
249 1 0.244482 0.798812 0.205252
250 1 0.309532 0.776114 0.962781
251 1 0.23588 0.761791 0.958074
252 1 0.491989 0.725563 0.777404
253 1 0.383821 0.620081 0.108281
254 1 0.400459 0.56314 0.100277
255 1 0.529574 0.541523 0.179162
256 1 0.511859 0.588668 0.0709445
257 1 0.2135 0.430077 0.252926
258 1 0.33998 0.78067 0.634104
259 1 0.240703 0.456687 0.099532
260 1 0.400387 0.508671 0.155049
261 1 0.598557 0.604578 0.852839
262 1 0.68651 0.592433 0.136844
263 1 0.63385 0.460538 0.16161
264 1 0.479353 0.61622 0.119383
265 1 0.540081 0.479905 0.143387
266 1 0.888156 0.707067 0.0529071
267 1 0.610631 0.568851 0.122497
268 1 0.817919 0.469027 0.20099
269 1 0.925437 0.488945 0.212348
270 1 0.00204498 0.449102 0.150817
271 1 0.759472 0.437508 0.274136
272 1 0.941531 0.53312 0.908967
273 1 0.98832 0.547664 0.951439
274 1 0.731487 0.849892 0.936282
275 1 0.798034 0.543974 0.0216491
276 1 0.597529 0.547443 0.999121
277 1 0.790642 0.629372 0.054992
278 1 0.770424 0.7071 0.816089
279 1 0.656284 0.626526 0.0729566
280 1 0.695856 0.589642 0.966698
281 1 0.989607 0.801208 0.00571518
282 1 0.0850639 0.133425 0.985601
283 1 0.966442 0.763628 0.148278
284 1 0.966175 0.961293 0.68362
285 1 0.886533 0.811994 0.16632
286 1 0.336197 0.752238 0.0239663
287 1 0.249611 0.794211 0.865369
288 1 0.0913821 0.574438 0.939965
289 1 0.432802 0.899201 0.990642
290 1 0.441869 0.934322 0.746619
291 1 0.381982 0.919932 0.952581
292 1 0.501224 0.818919 0.036086
293 1 0.425054 0.626349 0.151767
294 1 0.535648 0.624541 0.751408
295 1 0.316688 0.789569 0.167203
296 1 0.327034 0.728946 0.154926
297 1 0.717377 0.643436 0.103475
298 1 0.48528 0.677321 0.99042
299 1 0.42688 0.626312 0.769987
300 1 0.248754 0.0894446 0.901747
301 1 0.383259 0.692317 0.0137941
302 1 0.654265 0.753751 0.0694051
303 1 0.758069 0.639095 0.161461
304 1 0.469657 0.934911 0.967752
305 1 0.454358 0.452097 0.0181736
306 1 0.489504 0.628403 0.639984
307 1 0.708931 0.922712 0.0248318
308 1 0.414748 0.649409 0.9732
309 1 0.768068 0.47788 0.956006
310 1 0.709955 0.912003 0.0878334
311 1 0.0957992 0.567247 0.249019
312 1 0.496111 0.700699 0.105859
313 1 0.663072 0.432084 0.957657
314 1 0.905134 0.6731 0.985987
315 1 0.756795 0.855744 0.226508
316 1 0.711239 0.691725 0.157266
317 1 0.840706 0.67202 0.00350693
318 1 0.894366 0.808722 0.91359
319 1 0.133637 0.551942 0.0992038
320 1 0.804302 0.76585 0.988152
321 1 0.0939955 0.96219 0.760637
322 1 0.734565 0.00171312 0.869609
323 1 0.20233 0.692396 0.0331774
324 1 0.0463813 0.81474 0.0252677
325 1 0.0765285 0.654497 0.915524
326 1 0.87274 0.655663 0.878202
327 1 0.9851 0.745898 0.990944
328 1 0.241772 0.817135 0.101202
329 1 0.0385029 0.894496 0.955196
330 1 0.448414 0.910593 0.0566217
331 1 0.431675 0.737065 0.987213
332 1 0.16939 0.867992 0.281295
333 1 0.33476 0.971123 0.934125
334 1 0.3459 0.765124 0.915842
335 1 0.49844 0.795272 0.194751
336 1 0.150714 0.772305 0.167585
337 1 0.255885 0.820918 0.926349
338 1 0.293789 0.858636 0.0220698
339 1 0.483617 0.795625 0.559067
340 1 0.22559 0.974265 0.00628544
341 1 0.607868 0.754048 0.890218
342 1 0.469223 0.896603 0.197527
343 1 0.57151 0.914554 0.147839
344 1 0.48551 0.888652 0.0114513
345 1 0.567642 0.395658 0.948979
346 1 0.508917 0.0627831 0.971622
347 1 0.392688 0.331173 0.249132
348 1 0.571894 0.864568 0.220651
349 1 0.382865 0.752693 0.160444
350 1 0.607431 0.889105 0.846112
351 1 0.833015 0.57304 0.0797354
352 1 0.813192 0.919613 0.205667
353 1 0.658554 0.863432 0.817213
354 1 0.77361 0.776936 0.93058
355 1 0.622239 0.862394 0.100474
356 1 0.617415 0.841674 0.247286
357 1 0.723028 0.793065 0.9651
358 1 0.933182 0.852548 0.910021
359 1 0.930401 0.82623 0.118541
360 1 0.872475 0.0394849 0.0469425
361 1 0.293026 0.801492 0.0554605
362 1 0.23878 0.721772 0.753046
363 1 0.0066003 0.937941 0.192586
364 1 0.278294 0.96303 0.913513
365 1 0.908289 0.0295704 0.997853
366 1 0.245994 0.976332 0.856042
367 1 0.0845487 0.00737553 0.204102
368 1 0.221671 0.0230412 0.36406
369 1 0.385466 0.11427 0.103945
370 1 0.320161 0.441181 0.981571
371 1 0.362648 0.145715 0.053652
372 1 0.0182963 0.908651 0.136988
373 1 0.314006 0.237979 0.816116
374 1 0.0575751 0.877943 0.857974
375 1 0.565803 0.559158 0.0654134
376 1 0.305291 0.850156 0.098745
377 1 0.338014 0.80858 0.00627503
378 1 0.418472 0.976628 0.114459
379 1 0.335288 0.110436 0.264778
380 1 0.327922 0.780496 0.109216
381 1 0.48793 0.919215 0.144368
382 1 0.670437 0.119151 0.277927
383 1 0.773017 0.173549 0.191955
384 1 0.52579 0.952039 0.35691
385 1 0.671292 0.038845 0.208739
386 1 0.629841 0.0445135 0.105912
387 1 0.5964 0.911637 0.92092
388 1 0.460979 -0.000666962 0.984919
389 1 0.691809 0.193716 0.775761
390 1 0.0154273 0.995606 0.902857
391 1 0.583823 0.954816 0.192563
392 1 0.722836 0.862207 0.277735
393 1 0.798395 0.94078 0.65687
394 1 0.970607 0.963898 0.87991
395 1 0.513989 0.523561 0.0426521
396 1 0.850132 0.132324 0.889227
397 1 0.275776 0.273851 0.0813841
398 1 0.175801 0.79804 0.965944
399 1 0.256012 0.234901 0.979908
400 1 0.819735 0.0663046 0.039798
401 1 0.903721 0.196075 0.94134
402 1 0.296316 0.185305 0.107813
403 1 0.0833426 0.985122 0.0504712
404 1 0.828804 0.0232485 0.0855003
405 1 0.219559 0.247578 0.275336
406 1 0.325557 0.235839 0.0811331
407 1 0.202582 0.0162605 0.138531
408 1 0.646967 0.175869 0.313766
409 1 0.065546 0.0884805 0.0257597
410 1 0.211882 0.963203 0.222792
411 1 0.13775 0.0249128 0.167008
412 1 0.407496 0.941394 0.207099
413 1 0.141536 0.00423233 0.0291278
414 1 0.346151 0.892637 0.122725
415 1 0.412708 0.792294 0.101011
416 1 0.452978 0.0245632 0.142461
417 1 0.560056 0.805176 0.027597
418 1 0.480466 0.0688777 0.258176
419 1 0.311144 0.102499 0.322483
420 1 0.29549 0.0104135 0.0996715
421 1 0.328295 0.995856 0.177435
422 1 0.650574 0.831166 0.348152
423 1 0.818995 0.666753 0.111457
424 1 0.446216 0.00974596 0.416236
425 1 0.553825 0.0411661 0.366523
426 1 0.536458 0.85482 0.277868
427 1 0.715574 0.743675 0.0557324
428 1 0.443278 0.994845 0.868552
429 1 0.696494 0.250983 0.131174
430 1 0.850215 0.0164416 0.967643
431 1 0.74836 0.855489 0.110759
432 1 0.519062 0.19195 0.171098
433 1 0.75687 0.880232 0.0451171
434 1 0.941198 0.968097 0.192878
435 1 0.721709 0.0767662 0.170086
436 1 0.789986 0.0682826 0.345529
437 1 0.953047 0.977673 0.00789457
438 1 0.545018 0.123636 0.886525
439 1 0.814927 0.0270412 0.919888
440 1 0.713512 0.972773 0.213008
441 1 0.941773 0.0255262 0.910277
442 1 0.0586447 0.210056 0.000904105
443 1 0.0179534 0.099016 0.110553
444 1 0.112277 0.0911849 0.149935
445 1 0.172071 0.0962452 0.87404
446 1 0.995742 0.187943 0.113503
447 1 0.888507 0.127797 0.228363
448 1 0.396012 0.013828 0.189095
449 1 0.0810288 0.309645 0.408746
450 1 0.0972242 0.175236 0.25424
451 1 0.395729 0.926246 0.0898836
452 1 0.162135 0.0607335 0.373489
453 1 0.303582 0.128168 0.929114
454 1 0.414527 0.377993 0.00419099
455 1 0.447726 0.844235 0.37705
456 1 0.271117 0.502954 0.00688169
457 1 0.265441 0.0541791 0.145969
458 1 0.493812 0.124575 0.166383
459 1 0.756105 0.189981 0.248602
460 1 0.359025 0.267043 0.918939
461 1 0.571263 0.776916 0.290205
462 1 0.157229 0.0870679 0.205489
463 1 0.432988 0.795441 0.40481
464 1 0.820025 0.152446 0.391061
465 1 0.479122 0.0386728 0.0876308
466 1 0.68253 0.0656897 0.858258
467 1 0.577254 0.0297181 0.00794887
468 1 0.714161 0.341152 0.379066
469 1 0.782345 0.326446 0.971948
470 1 0.580696 0.021974 0.180899
471 1 0.866813 0.0704476 0.137789
472 1 0.666804 0.156201 0.917014
473 1 0.880251 0.170201 0.417419
474 1 0.114102 0.358793 0.748646
475 1 0.954764 0.25831 0.811328
476 1 0.830867 0.139957 0.114606
477 1 0.737789 0.78608 0.11091
478 1 0.975682 0.240832 0.0405982
479 1 0.883704 0.0672697 0.209052
480 1 0.775095 0.982832 0.201321
481 1 0.104564 0.275005 0.895287
482 1 0.142354 0.321293 0.0270984
483 1 0.175203 0.194938 0.141853
484 1 0.0150893 0.256884 0.234154
485 1 0.15942 0.192039 0.0834233
486 1 0.101371 0.514225 0.179303
487 1 0.423312 0.503575 0.0993222
488 1 0.963895 0.153366 0.958171
489 1 0.956729 0.248207 0.910927
490 1 0.18907 0.380533 0.278668
491 1 0.503216 0.205417 0.0632558
492 1 0.183134 0.327105 0.980497
493 1 0.122349 0.241764 0.788396
494 1 0.294797 0.964159 0.0545245
495 1 0.505355 0.186851 0.380681
496 1 0.486062 0.434065 0.195104
497 1 0.38305 0.940015 0.671505
498 1 0.25671 0.00944913 0.216672
499 1 0.297747 0.175793 0.182662
500 1 0.356312 0.0402726 0.837208
501 1 0.551486 0.15577 0.406128
502 1 0.427292 0.169529 0.139927
503 1 0.793377 0.424265 0.323864
504 1 0.491639 0.373779 0.175684
505 1 0.455503 0.0920165 0.852762
506 1 0.695269 0.360625 0.197259
507 1 0.575239 0.969922 0.273203
508 1 0.599191 0.118143 0.922934
509 1 0.69881 0.0949825 0.0340957
510 1 0.774932 0.924924 0.110916
511 1 0.602466 0.122315 0.288195
512 1 0.782948 0.378941 0.591564
513 1 0.611353 0.219096 0.481418
514 1 0.00416543 0.455299 0.0314668
515 1 0.869646 0.329389 0.102875
516 1 0.858993 0.199216 0.038843
517 1 0.0548647 0.157225 0.0942816
518 1 0.849297 0.955961 0.0936299
519 1 0.820718 0.284658 0.207097
520 1 0.00835434 0.219323 0.170973
521 1 0.313108 0.309303 0.997705
522 1 0.244274 0.38065 0.0386687
523 1 0.891372 0.12757 0.12752
524 1 0.115015 0.346859 0.0864161
525 1 0.981365 0.270026 0.985379
526 1 0.373157 0.353642 0.95302
527 1 0.0668582 0.204784 0.206942
528 1 0.203161 0.212517 0.839059
529 1 0.398656 0.230199 0.139071
530 1 0.274334 0.329187 0.0530672
531 1 0.320914 0.509313 0.287906
532 1 0.117264 0.349574 0.884131
533 1 0.365083 0.322384 0.876253
534 1 0.140805 0.793849 0.898017
535 1 0.628958 0.556469 0.0603646
536 1 0.330051 0.431275 0.367539
537 1 0.46941 0.339387 0.0951302
538 1 0.639783 0.298852 0.102706
539 1 0.475431 0.221496 0.147865
540 1 0.442017 0.352737 0.272689
541 1 0.482314 0.1583 0.963122
542 1 0.660494 0.149698 0.400624
543 1 0.493277 0.0850746 0.325128
544 1 0.428084 0.322543 0.734929
545 1 0.465176 0.247399 0.0144401
546 1 0.641557 0.215594 0.877328
547 1 0.495493 0.29539 0.196874
548 1 0.847194 0.404243 0.91409
549 1 0.884722 0.0145076 0.102625
550 1 0.995615 0.319517 0.225428
551 1 0.64306 0.360411 0.00428748
552 1 0.69752 0.16839 0.125006
553 1 0.891041 0.206007 0.121789
554 1 0.959594 0.489487 0.150397
555 1 0.887329 0.430301 0.281138
556 1 0.943114 0.176214 0.377767
557 1 0.132183 0.337212 0.943493
558 1 0.891717 0.348475 0.930306
559 1 0.840887 0.0479911 0.303725
560 1 0.873246 0.168042 0.17116
561 1 0.984634 0.198302 0.219326
562 1 0.892097 0.443114 0.0850147
563 1 0.0324567 0.368524 0.0672245
564 1 0.0063007 0.261579 0.111885
565 1 0.281539 0.544855 0.119794
566 1 0.98869 0.731698 0.200418
567 1 0.210458 0.315995 0.0579576
568 1 0.113571 0.600058 0.145558
569 1 0.111711 0.253472 0.181897
570 1 0.0264719 0.387247 0.150277
571 1 0.23395 0.400347 0.984779
572 1 0.170114 0.566137 0.0396133
573 1 0.277105 0.383564 0.868474
574 1 0.928787 0.538507 0.969018
575 1 0.573171 0.209761 0.969496
576 1 0.23724 0.547684 0.0402827
577 1 0.392883 0.416064 0.957912
578 1 0.389888 0.103529 0.727044
579 1 0.560292 0.496226 0.809126
580 1 0.310653 0.641192 0.0990018
581 1 0.523807 0.330798 0.00128208
582 1 0.526811 0.452043 0.0921323
583 1 0.682779 0.498489 0.912039
584 1 0.423293 0.216337 0.971409
585 1 0.560129 0.443462 0.00643026
586 1 0.841453 0.471153 0.120752
587 1 0.356426 0.348564 0.0141967
588 1 0.337056 0.527481 0.158598
589 1 0.592307 0.258784 0.0609409
590 1 0.75964 0.399151 0.0742225
591 1 0.756838 0.340203 0.0956699
592 1 0.601384 0.486374 0.985148
593 1 0.826523 0.215435 0.20801
594 1 0.776365 0.329213 0.182824
595 1 0.592135 0.0751807 0.0696573
596 1 0.840951 0.110787 0.181314
597 1 0.000515854 0.376071 0.95021
598 1 0.798106 0.524732 0.148421
599 1 0.833542 0.191676 0.3413
600 1 0.906424 0.684611 0.17918
601 1 0.102355 0.386958 0.191554
602 1 0.04017 0.53486 0.222093
603 1 0.0966968 0.30728 0.149393
604 1 0.141118 0.803467 0.108663
605 1 0.0411637 0.152745 0.0267693
606 1 0.108786 0.605847 0.0799396
607 1 0.0344319 0.461713 0.978672
608 1 0.208263 0.695231 0.1024
609 1 0.351712 0.412136 0.0325616
610 1 0.217663 0.564625 0.185293
611 1 0.258176 0.708358 0.139474
612 1 0.143696 0.673549 0.914792
613 1 0.192042 0.532209 0.0965979
614 1 0.385141 0.53032 0.285143
615 1 0.109681 0.251662 0.0283195
616 1 0.508963 0.580165 0.243057
617 1 0.519179 0.411051 0.976666
618 1 0.420667 0.250086 0.921595
619 1 0.346136 0.502977 0.235122
620 1 0.19335 0.524167 0.998415
621 1 0.452626 0.589112 0.0342334
622 1 0.665723 0.572229 0.202305
623 1 0.699751 0.524625 0.977434
624 1 0.420803 0.29569 0.182573
625 1 0.555683 0.572763 0.957427
626 1 0.814571 0.368115 0.132357
627 1 0.657607 0.350311 0.0643936
628 1 0.572781 0.322606 0.243844
629 1 0.55304 0.686408 0.0775875
630 1 0.679277 0.71265 0.110644
631 1 0.823462 0.507462 0.977317
632 1 0.691164 0.474961 0.379757
633 1 0.923075 0.461443 0.401244
634 1 0.0843739 0.494999 0.243917
635 1 0.757533 0.508752 0.0144852
636 1 0.847463 0.628902 0.175619
637 1 0.847159 0.413582 0.163958
638 1 0.757592 0.586047 0.110136
639 1 0.182312 0.432872 0.0990022
640 1 0.945435 0.470908 0.092752
641 1 0.0773027 0.534273 0.128797
642 1 0.0878476 0.698528 0.226638
643 1 0.206979 0.838605 0.950284
644 1 0.279511 0.677375 0.217982
645 1 0.113112 0.541496 0.0123847
646 1 0.329937 0.603337 0.0496111
647 1 0.230525 0.853734 0.304499
648 1 0.0181368 0.653274 0.201907
649 1 0.0356354 0.615667 0.980408
650 1 0.0323938 0.962636 0.0142268
651 1 0.118286 0.629976 0.960329
652 1 0.30148 0.683326 0.0536209
653 1 0.0467359 0.535432 0.96616
654 1 0.232434 0.380077 0.346467
655 1 0.232187 0.632799 0.357318
656 1 0.42379 0.527407 0.0077365
657 1 0.257639 0.878108 0.968178
658 1 0.493368 0.604285 0.183358
659 1 0.458961 0.482366 0.22342
660 1 0.408326 0.773258 0.028476
661 1 0.47322 0.415236 0.0698758
662 1 0.592875 0.627882 0.104424
663 1 0.552184 0.804925 0.233256
664 1 0.57688 0.430111 0.0682617
665 1 0.56737 0.732481 0.115058
666 1 0.855333 0.70016 0.387678
667 1 0.5676 0.541891 0.326313
668 1 0.87641 0.545624 0.268319
669 1 0.603706 0.675378 0.140511
670 1 0.707775 0.649991 0.968922
671 1 0.809942 0.295465 0.140437
672 1 0.823221 0.415213 0.268045
673 1 0.903126 0.583561 0.0983316
674 1 0.934821 0.589751 0.270843
675 1 0.10896 0.678901 0.862983
676 1 -0.000802037 0.492667 0.215807
677 1 0.658561 0.649524 0.132473
678 1 0.995213 0.588071 0.141343
679 1 0.93459 0.643326 0.130832
680 1 0.0409783 0.428243 0.193092
681 1 0.368958 0.888399 0.187494
682 1 0.937205 0.801104 0.0427806
683 1 0.0620541 0.622271 0.037074
684 1 0.812372 0.847112 0.194657
685 1 0.0325152 0.865381 0.0770589
686 1 0.160405 0.652853 0.836687
687 1 0.27503 0.979415 0.155063
688 1 0.271872 0.771123 0.135659
689 1 0.358042 0.654068 0.0626476
690 1 0.330056 0.905016 0.0628635
691 1 0.428041 0.911255 0.265796
692 1 0.185302 0.9158 0.251481
693 1 0.366669 0.694452 0.110226
694 1 0.508153 0.711876 0.0392544
695 1 0.46233 0.686728 0.288371
696 1 0.508565 0.748748 0.140979
697 1 0.66133 0.570592 0.00829646
698 1 0.4483 0.609203 0.844606
699 1 0.401782 0.586173 0.314695
700 1 0.503021 0.830385 0.346585
701 1 0.591927 0.909558 0.032175
702 1 0.714836 0.651125 0.035584
703 1 0.612264 0.594225 0.967429
704 1 0.17897 0.898616 0.168201
705 1 0.3786 0.46016 0.000733816
706 1 0.619473 0.702044 0.0896772
707 1 0.775997 0.653549 0.358069
708 1 0.850938 0.569681 0.339348
709 1 0.613642 0.611693 0.164712
710 1 0.819588 0.700408 0.0567307
711 1 0.574624 0.503498 0.0385459
712 1 0.881029 0.788735 0.0229522
713 1 0.751477 0.768562 0.0114236
714 1 0.0897352 0.761116 0.11528
715 1 0.855849 0.564398 0.142585
716 1 0.878294 0.498092 0.0798704
717 1 0.785274 0.52741 0.233773
718 1 0.94971 0.718535 0.101116
719 1 0.283518 0.788154 0.269783
720 1 0.810436 0.797747 0.250866
721 1 0.0506222 0.936726 0.085347
722 1 0.251808 0.751948 0.0748531
723 1 0.292028 0.747258 0.210653
724 1 0.988204 0.653781 0.0857421
725 1 0.0677916 0.0506665 0.922886
726 1 0.295433 0.253392 0.0231074
727 1 0.0710317 0.769276 0.240363
728 1 0.922046 0.0981465 0.984178
729 1 0.102661 0.816126 0.152898
730 1 0.279545 0.979906 0.973272
731 1 0.392858 0.741363 0.0862806
732 1 0.351246 0.939461 0.229853
733 1 0.404457 0.688766 0.162019
734 1 0.430571 0.841464 0.0647035
735 1 0.327037 0.628194 0.215985
736 1 0.356204 0.867569 0.969349
737 1 0.532543 0.701287 0.173009
738 1 0.485231 0.979245 0.113493
739 1 0.619612 0.930776 0.102134
740 1 0.305354 0.841007 0.957573
741 1 0.769783 0.871147 0.421294
742 1 0.7502 0.649439 0.231947
743 1 0.685126 0.855499 0.0733856
744 1 0.524319 0.861117 0.143217
745 1 0.573273 0.0434248 0.279863
746 1 0.754335 0.903528 0.971894
747 1 0.562686 0.82419 0.0980619
748 1 0.440782 0.616109 0.255284
749 1 0.746858 0.301599 0.143323
750 1 0.754754 0.80224 0.269186
751 1 0.699177 0.444654 0.0537856
752 1 0.625306 0.755379 0.126608
753 1 0.701565 0.868766 0.859973
754 1 0.874869 0.126382 0.952134
755 1 0.701001 0.756704 0.146289
756 1 0.962817 0.687532 0.160502
757 1 0.0606211 0.936487 0.214433
758 1 0.93129 0.92272 0.0969627
759 1 0.978645 0.842951 0.060797
760 1 0.863204 0.767132 0.782726
761 1 0.0743667 0.666173 0.163977
762 1 0.0658665 0.0667432 0.301822
763 1 0.0499413 0.9571 0.95456
764 1 0.0742228 0.0282386 0.0040317
765 1 0.119059 0.98858 0.819078
766 1 0.204906 0.418195 0.940226
767 1 0.177733 0.0384608 0.309327
768 1 0.973262 0.00787293 0.163099
769 1 0.42827 0.811344 0.284775
770 1 0.845698 0.964345 0.93866
771 1 0.202927 0.0818979 0.986307
772 1 0.0945418 0.985999 0.924893
773 1 0.438601 0.989202 0.237917
774 1 0.212855 0.130575 0.233056
775 1 0.312363 0.88632 0.469029
776 1 0.223101 0.0796892 0.349521
777 1 0.632242 0.0743297 0.0223913
778 1 0.55047 0.881004 0.338174
779 1 0.540395 0.0279889 0.0605412
780 1 0.4876 0.888079 0.922203
781 1 0.470749 0.180334 0.209228
782 1 0.510881 0.714042 0.329063
783 1 0.255009 0.0246939 0.292661
784 1 0.698363 0.954801 0.967126
785 1 0.596865 0.638069 0.23314
786 1 0.723091 0.0152181 0.154425
787 1 0.679153 0.764528 0.278494
788 1 0.402136 0.0532892 0.0810494
789 1 0.519545 0.876058 0.393596
790 1 0.505313 0.962415 0.221599
791 1 0.871413 0.848935 0.0023422
792 1 0.733128 0.0338962 0.34683
793 1 0.75952 0.816738 0.172964
794 1 0.710301 0.768466 0.210134
795 1 0.239892 0.935002 0.957083
796 1 0.661223 0.00310576 0.152296
797 1 0.844624 0.794907 0.953495
798 1 0.906133 0.0763643 0.0832824
799 1 0.0979689 0.211734 0.320614
800 1 0.815878 0.91354 0.947961
801 1 0.904557 0.988213 0.95215
802 1 0.206358 0.0815545 0.158622
803 1 0.295198 0.957823 0.215452
804 1 0.931063 0.983093 0.131832
805 1 0.828292 0.87164 0.141378
806 1 0.153041 0.115938 0.993946
807 1 0.937888 0.138087 0.521049
808 1 0.393063 0.969548 0.274645
809 1 0.20536 0.930521 0.0761872
810 1 0.200101 0.99387 0.417384
811 1 0.154572 0.989874 0.361455
812 1 0.994769 0.111029 0.203414
813 1 0.339692 0.0275525 0.539011
814 1 0.142141 0.0402153 0.0962687
815 1 0.341859 0.168517 0.440769
816 1 0.256072 0.967328 0.269454
817 1 0.200694 0.970481 0.324979
818 1 0.432131 0.898874 0.391151
819 1 0.454893 0.0259389 0.312788
820 1 0.297442 0.156054 0.292748
821 1 0.642084 0.864735 0.18266
822 1 0.458053 0.979567 0.350895
823 1 0.487331 0.810438 0.26753
824 1 0.512345 0.166053 0.287125
825 1 0.53697 0.969344 0.158628
826 1 0.59156 0.77804 0.072465
827 1 0.886633 0.954693 0.158179
828 1 0.841604 0.0095524 0.140562
829 1 0.828999 0.155894 0.237955
830 1 0.089276 0.856671 0.417043
831 1 0.596934 0.974682 0.987951
832 1 0.545797 0.141251 0.132498
833 1 0.616712 0.580855 0.238944
834 1 0.927463 0.0568187 0.135085
835 1 0.987623 0.960384 0.126487
836 1 0.838819 0.757126 0.0460123
837 1 0.0190273 0.870779 0.0112422
838 1 0.817672 0.199434 0.148236
839 1 0.947858 0.0540437 0.0374249
840 1 0.879238 0.0817241 0.334233
841 1 0.0498718 0.180276 0.149861
842 1 0.0505722 0.117148 0.868571
843 1 0.122696 0.0897677 0.331941
844 1 0.130754 0.0276539 0.545099
845 1 0.0489379 0.0189318 0.263311
846 1 0.237265 0.294406 0.226447
847 1 0.0169467 0.179114 0.35706
848 1 0.0201138 0.830334 0.348158
849 1 0.993408 0.205034 -0.00103714
850 1 0.378644 0.917864 0.0154246
851 1 0.211334 0.99516 0.595618
852 1 0.257229 0.0944597 0.287151
853 1 0.271516 0.0579264 0.00474594
854 1 0.514529 0.12158 0.237312
855 1 0.482689 0.0436872 0.0234742
856 1 0.360565 0.287494 0.280051
857 1 0.175106 0.234415 0.467783
858 1 0.470318 0.189102 0.318975
859 1 0.603729 0.874926 0.361856
860 1 0.32334 0.231524 0.383358
861 1 0.652964 0.110993 0.964662
862 1 0.58715 0.0697453 0.414745
863 1 0.484175 0.949028 0.406842
864 1 0.612536 0.230203 0.329934
865 1 0.375596 0.0999316 0.161569
866 1 0.771357 0.142642 0.11322
867 1 0.653942 0.753853 0.222364
868 1 0.708788 0.381999 0.253739
869 1 0.714079 0.212616 0.179498
870 1 0.643804 0.980604 0.20735
871 1 0.59759 0.16687 0.147659
872 1 -0.000719173 0.0397837 0.21204
873 1 0.0047065 0.0812066 0.04839
874 1 0.987761 0.115148 0.00321455
875 1 0.662207 0.876647 0.243995
876 1 0.885602 0.977382 0.0352513
877 1 0.686014 0.175596 0.265759
878 1 0.999469 0.0726986 0.157411
879 1 0.11508 0.157223 0.102766
880 1 0.772042 0.0133506 0.405647
881 1 0.00688918 0.947204 0.409354
882 1 0.764628 0.253233 0.182786
883 1 0.0639246 0.158923 0.303104
884 1 0.156896 0.265604 0.0617486
885 1 0.133797 0.321846 0.20752
886 1 0.845883 0.102931 0.258037
887 1 0.15869 0.155069 0.229643
888 1 0.141339 0.200648 0.201576
889 1 0.186478 0.208177 0.0292824
890 1 0.897792 0.271074 0.0657399
891 1 0.31089 0.317152 0.119798
892 1 0.413426 0.22907 0.0304099
893 1 0.247205 0.203485 0.157608
894 1 0.366714 0.448255 0.264049
895 1 0.560514 0.200643 0.251448
896 1 0.221758 0.360131 0.214168
897 1 0.430083 0.0759337 0.308978
898 1 0.494028 0.230589 0.278524
899 1 0.316142 0.924689 0.16446