ITEM: TIMESTEP
62600
ITEM: NUMBER OF ATOMS
4000
ITEM: BOX BOUNDS pp pp pp
0.0000000000000000e+00 1.6795961913825074e+01
0.0000000000000000e+00 1.6795961913825074e+01
0.0000000000000000e+00 1.6795961913825074e+01
ITEM: ATOMS id type xs ys zs
1 1 0.940751 0.534009 0.456741
2 1 0.0570352 0.865199 0.0538168
3 1 0.970516 0.682178 0.230501
4 1 0.609438 0.850849 0.112846
5 1 0.449392 0.770954 0.377803
6 1 0.589754 0.697979 0.461836
7 1 0.880316 0.450615 0.564619
8 1 0.441867 0.239315 0.302501
9 1 0.34006 0.259342 0.316988
10 1 0.516701 0.103219 0.385318
11 1 0.243746 0.67585 0.941597
12 1 0.290812 0.483688 0.00721233
13 1 0.221302 0.0063559 0.319404
14 1 0.580457 0.60008 0.789753
15 1 0.303866 0.215478 0.964496
16 1 0.447883 0.896393 0.213758
17 1 0.665334 0.512954 0.69497
18 1 0.530482 0.985738 0.977178
19 1 0.671938 0.787744 0.549549
20 1 0.50973 0.204831 0.072559
21 1 0.5511 0.0567043 0.993526
22 1 0.491068 0.321357 0.167087
23 1 0.817506 0.326315 0.934535
24 1 0.634471 0.999498 0.0350161
25 1 0.638994 0.954003 0.989635
26 1 0.929691 0.279082 0.127943
27 1 0.901397 0.952903 0.234363
28 1 0.617286 0.655988 0.910387
29 1 0.145847 0.636484 0.128028
30 1 0.588184 0.826705 0.942009
31 1 0.332816 0.00757618 0.196085
32 1 0.399625 0.180916 0.146404
33 1 0.093589 0.022952 0.145733
34 1 0.868126 0.195552 0.149376
35 1 0.154116 0.0437412 0.332507
36 1 0.0974486 0.286214 0.473239
37 1 0.470243 0.873616 0.988737
38 1 0.618776 0.937148 0.0569344
39 1 0.304874 0.103736 0.884461
40 1 0.00450959 0.0754427 0.193362
41 1 0.848546 0.914265 0.933277
42 1 0.860003 0.0361694 0.393476
43 1 0.887318 0.150367 0.401958
44 1 0.153477 0.531882 0.38963
45 1 0.797041 0.085254 0.871296
46 1 0.785947 0.423092 0.351025
47 1 0.372784 0.767966 0.169378
48 1 0.159613 0.554415 0.237449
49 1 0.174719 0.0806284 0.638378
50 1 0.668141 0.773861 0.325117
51 1 0.604314 0.500246 0.147916
52 1 0.29634 0.116221 0.292272
53 1 0.40248 0.280869 0.287794
54 1 0.0302997 0.619094 0.911613
55 1 0.50146 0.228253 0.0051619
56 1 0.235693 0.0578986 0.3687
57 1 0.346108 0.410471 0.480222
58 1 0.492835 0.48124 0.926169
59 1 0.872238 0.343141 0.447303
60 1 0.34359 0.321872 0.207782
61 1 0.152389 0.741541 0.977073
62 1 0.770003 0.342191 0.365785
63 1 0.46336 0.0324809 0.103797
64 1 0.50614 0.181888 0.312397
65 1 0.354165 0.446913 0.956232
66 1 0.628776 0.848465 0.0441528
67 1 0.0841781 0.636799 0.165359
68 1 0.0142692 0.437704 0.278257
69 1 0.310733 0.963157 0.0100145
70 1 0.545341 0.0158756 0.806451
71 1 0.527642 0.16833 0.188643
72 1 0.194821 0.151302 0.0880183
73 1 0.686546 0.212043 0.874341
74 1 0.346524 0.827353 0.268658
75 1 0.645806 0.587006 0.799073
76 1 0.820448 0.685809 0.191216
77 1 0.399785 0.378916 0.112368
78 1 0.788935 0.567814 0.562613
79 1 0.754436 0.986191 0.072328
80 1 0.126042 0.252517 0.981101
81 1 0.0418376 0.261085 0.950612
82 1 0.907936 0.701945 0.912417
83 1 0.207088 0.858382 0.811123
84 1 0.307969 0.262091 0.911142
85 1 0.872086 0.228045 0.85177
86 1 0.964545 0.335755 0.0905983
87 1 0.725303 0.409418 0.941618
88 1 0.0954344 0.107051 0.00454743
89 1 0.527041 0.831738 0.364387
90 1 0.802767 0.919497 0.226015
91 1 0.078948 0.0258131 0.759452
92 1 0.123376 0.641252 0.838586
93 1 0.448717 0.945716 0.701925
94 1 0.960512 0.0729754 0.761498
95 1 0.280266 0.511044 0.698472
96 1 0.424795 0.13507 0.104169
97 1 0.189846 0.301328 0.0684626
98 1 0.584679 0.919924 0.321141
99 1 0.335551 0.0609557 0.315954
100 1 0.922893 0.0290074 0.783701
101 1 0.740586 0.219587 0.511304
102 1 0.357087 0.91074 0.369241
103 1 0.935781 0.256873 0.0662925
104 1 0.301022 0.136799 0.954412
105 1 0.0627972 0.998576 0.532251
106 1 0.949648 0.416952 0.449658
107 1 0.612537 0.749084 0.489253
108 1 0.976812 0.14696 0.966812
109 1 0.165119 0.813477 0.664277
110 1 0.741412 0.998408 0.161329
111 1 0.557399 0.942772 0.940735
112 1 0.376637 0.168296 0.0747282
113 1 0.441627 0.00888443 0.165846
114 1 0.742913 0.394061 0.615384
115 1 0.44793 0.171104 0.200689
116 1 0.385493 0.472818 0.4989
117 1 0.240687 0.71372 0.0921059
118 1 0.489569 0.104125 0.471976
119 1 0.86647 0.883688 0.376861
120 1 0.593459 0.473907 0.805408
121 1 0.609555 0.4283 0.0332903
122 1 0.119984 0.772111 0.126137
123 1 0.0309976 0.535873 0.225148
124 1 0.38707 0.767042 0.719636
125 1 0.387461 0.483877 0.126255
126 1 0.315572 0.236568 0.464801
127 1 0.991508 0.864369 0.752256
128 1 0.719223 0.815353 0.862118
129 1 0.63575 0.302777 0.50878
130 1 0.791646 0.590257 0.261028
131 1 0.0882461 0.378315 0.41524
132 1 0.188464 0.623324 0.0226493
133 1 0.123044 0.015872 0.872358
134 1 0.135234 0.550844 0.77013
135 1 0.357789 0.511623 0.0111934
136 1 0.35252 0.860317 0.555607
137 1 0.435098 0.218477 0.991679
138 1 0.192701 0.898218 0.17389
139 1 0.79628 0.512742 0.953538
140 1 0.903887 0.981305 0.629136
141 1 0.972033 0.0965389 0.506372
142 1 0.626917 0.140884 0.0734955
143 1 0.134589 0.273262 0.354343
144 1 0.756566 0.271775 0.500736
145 1 0.823145 0.306002 0.0116462
146 1 0.743667 0.718055 0.0826441
147 1 0.0224293 0.418503 0.893007
148 1 0.492869 0.344143 0.945443
149 1 0.87788 0.370681 0.344517
150 1 0.782199 0.543163 0.103005
151 1 0.840732 0.883613 0.180867
152 1 0.743771 0.669865 0.113157
153 1 0.745961 0.918349 0.491273
154 1 0.166806 0.249998 0.130914
155 1 0.616661 0.255643 0.25206
156 1 0.905947 0.950845 0.763182
157 1 0.679606 0.209333 0.934011
158 1 0.056061 0.192451 0.520549
159 1 0.329332 0.173339 0.914523
160 1 0.322172 0.975633 0.135004
161 1 0.969849 0.398208 0.915831
162 1 0.0532832 0.296876 0.0587972
163 1 0.141668 0.344367 0.16107
164 1 0.890848 0.804462 0.885212
165 1 0.78448 0.67754 0.977915
166 1 0.464607 0.753372 0.987339
167 1 0.0374652 0.187654 0.395222
168 1 0.178548 0.684782 0.600064
169 1 0.772074 0.604507 0.192572
170 1 0.244534 0.735737 0.371179
171 1 0.523399 0.536728 0.266473
172 1 0.220734 0.346759 0.237933
173 1 0.253492 0.676586 0.877014
174 1 0.0646975 0.677101 0.241682
175 1 0.381784 0.451341 0.317272
176 1 0.193138 0.956543 0.597794
177 1 0.177094 0.735684 0.818539
178 1 0.752365 0.602403 0.111708
179 1 0.541198 0.532234 0.581989
180 1 0.811803 0.401525 0.304389
181 1 0.234996 0.642177 0.392013
182 1 0.821867 0.196869 0.693815
183 1 0.173366 0.421996 0.34661
184 1 0.511988 0.645256 0.769566
185 1 0.764538 0.623779 0.564457
186 1 0.0329124 0.276945 0.41174
187 1 0.434307 0.354606 0.619305
188 1 0.171229 0.193185 0.182212
189 1 0.827847 0.569436 0.90799
190 1 0.394936 0.757644 0.0962359
191 1 0.674266 0.250443 0.515321
192 1 0.880009 0.535358 0.419055
193 1 0.608612 0.216042 0.0360176
194 1 0.895705 0.575942 0.925968
195 1 0.00590962 0.522289 0.373738
196 1 0.868024 0.414449 0.870988
197 1 0.46423 0.154531 0.366767
198 1 0.308559 0.634545 0.776695
199 1 0.236269 0.379295 0.589571
200 1 0.564032 0.350668 0.410494
201 1 0.2701 0.228451 0.106575
202 1 0.269197 0.689523 0.196716
203 1 0.0724841 0.389503 0.0645633
204 1 0.115737 0.390489 0.203344
205 1 0.412998 0.69467 0.601619
206 1 0.440224 0.364036 0.0691613
207 1 0.0690068 0.783753 0.278372
208 1 0.117723 0.799605 0.948143
209 1 0.128288 0.239984 0.435452
210 1 0.361504 0.887911 0.283911
211 1 0.108049 0.29215 0.124718
212 1 0.927793 0.766051 0.317749
213 1 0.700564 0.882547 0.859242
214 1 0.879279 0.779779 0.0293279
215 1 0.036189 0.174241 0.0875289
216 1 0.0423865 0.604915 0.12662
217 1 0.409776 0.647934 0.153704
218 1 0.732056 0.583103 0.248356
219 1 0.113147 0.0407361 0.420242
220 1 0.352928 0.842989 0.381905
221 1 0.241042 0.702855 0.0257712
222 1 0.3575 0.844274 0.689457
223 1 0.642137 0.771166 0.411166
224 1 0.414941 0.693574 0.740815
225 1 0.515212 0.88462 0.0754283
226 1 0.395698 0.13143 0.917199
227 1 0.340187 0.811023 0.210894
228 1 0.156325 0.393529 0.119871
229 1 0.280854 0.274264 0.843318
230 1 0.243932 0.895415 0.161189
231 1 0.937301 0.463765 0.948701
232 1 0.238343 0.249624 0.43858
233 1 0.809364 0.814433 0.211852
234 1 0.0737712 0.432266 0.296456
235 1 0.101818 0.272529 0.923186
236 1 0.555003 0.438243 0.984385
237 1 0.844147 0.247172 0.461888
238 1 0.542523 0.631677 0.870905
239 1 0.667542 0.300734 0.858462
240 1 0.723478 0.481652 0.017799
241 1 0.617995 0.966009 0.157221
242 1 0.504005 0.898267 0.787225
243 1 0.561753 0.840565 0.665751
244 1 0.159958 0.683859 0.174307
245 1 0.993826 0.65984 0.927198
246 1 0.931718 0.608784 0.763032
247 1 0.23493 0.790084 0.90111
248 1 0.00223368 0.866002 0.858981
249 1 0.946874 0.283457 0.249928
250 1 0.806675 0.63222 0.000978531
251 1 0.494128 0.70795 0.723971
252 1 0.776611 0.893845 0.143251
253 1 0.400013 0.0934404 0.383884
254 1 0.075757 0.219212 0.777505
255 1 0.330463 0.325003 0.32001
256 1 0.39153 0.886782 0.0670672
257 1 0.419615 0.586862 0.140239
258 1 0.807206 0.455889 0.592533
259 1 0.356801 0.625557 0.134075
260 1 0.260122 0.638776 0.488932
261 1 0.347416 0.327694 0.113114
262 1 0.767603 0.411535 0.189589
263 1 0.190755 0.790637 0.534498
264 1 0.149409 0.531632 0.956435
265 1 0.591111 0.412833 0.172983
266 1 0.349428 0.583592 0.767101
267 1 0.419427 0.435585 0.967266
268 1 0.756464 0.0833404 0.102723
269 1 0.420512 0.936535 0.141995
270 1 0.270224 0.830439 0.0162589
271 1 0.662866 0.460766 0.45324
272 1 0.288111 0.212901 0.264187
273 1 0.0985994 0.315331 0.738011
274 1 0.482007 0.297086 0.903299
275 1 0.238406 0.155588 0.56088
276 1 0.710914 0.814298 0.233589
277 1 0.835749 0.474532 0.930733
278 1 0.908196 0.698144 0.719155
279 1 0.480907 0.458763 0.452697
280 1 0.125493 0.851597 0.980038
281 1 0.850856 0.982422 0.473857
282 1 0.0635263 0.675075 0.797279
283 1 0.61697 0.905136 0.00972628
284 1 0.821122 0.93401 0.524518
285 1 0.0033134 0.518271 0.507732
286 1 0.959527 0.481602 0.566493
287 1 0.365434 0.284988 0.162325
288 1 0.059779 0.525815 0.664062
289 1 0.802781 0.702316 0.11296
290 1 0.619848 0.215737 0.909621
291 1 0.245488 0.983898 0.569036
292 1 0.373669 0.0506582 0.505189
293 1 0.294545 0.728744 0.33163
294 1 0.597778 0.788716 0.106028
295 1 0.423648 0.558061 0.344934
296 1 0.0888065 0.801778 0.890689
297 1 0.842048 0.666505 0.89558
298 1 0.50448 0.860818 0.309762
299 1 0.32808 0.0284856 0.258261
300 1 0.814061 0.563417 0.618134
301 1 0.338577 0.429956 0.552906
302 1 0.68168 0.385114 0.299978
303 1 0.637205 0.0201627 0.33986
304 1 0.853949 0.159761 0.569285
305 1 0.510688 0.64677 0.98049
306 1 0.626528 0.653557 0.47737
307 1 0.591639 0.436959 0.110041
308 1 0.518453 0.0543459 0.920279
309 1 0.395454 0.756478 0.777863
310 1 0.627179 0.945651 0.646721
311 1 0.241929 0.725165 0.29187
312 1 0.211035 0.562597 0.270178
313 1 0.936678 0.630291 0.926311
314 1 0.974999 0.768791 0.664954
315 1 0.36568 0.932475 0.423302
316 1 0.708609 0.384539 0.388924
317 1 0.811292 0.942951 0.973071
318 1 0.545316 0.772109 0.783698
319 1 0.0800977 0.361836 0.837475
320 1 0.351947 0.81521 0.0725999
321 1 0.0390639 0.836589 0.293556
322 1 0.686547 0.844633 0.193311
323 1 0.443069 0.427745 0.296765
324 1 0.100001 0.839755 0.176417
325 1 0.835578 0.816845 0.281973
326 1 0.193432 0.861603 0.634744
327 1 0.207504 0.708831 0.716251
328 1 0.93521 0.792965 0.25923
329 1 0.675267 0.766277 0.864834
330 1 0.8685 0.429814 0.348445
331 1 0.432339 0.824897 0.608374
332 1 0.270273 0.195668 0.736158
333 1 0.655383 0.803183 0.926159
334 1 0.87889 0.840123 0.559342
335 1 0.835865 0.111086 0.246122
336 1 0.0690256 0.957439 0.899865
337 1 0.830431 0.423551 0.779716
338 1 0.19996 0.957932 0.154606
339 1 0.395446 0.462619 0.689751
340 1 0.0496537 0.962165 0.321515
341 1 0.359481 0.598382 0.189428
342 1 0.49324 0.869205 0.915516
343 1 0.648005 0.618256 0.151536
344 1 0.706647 0.0226839 0.742655
345 1 0.854589 0.660995 0.026969
346 1 0.251704 0.531121 0.0626647
347 1 0.566261 0.243156 0.965184
348 1 0.765548 0.112717 0.516473
349 1 0.462447 0.623272 0.432697
350 1 0.71996 0.660664 0.0508604
351 1 0.888545 0.840104 0.308457
352 1 0.0521003 0.929425 0.56218
353 1 0.431627 0.863363 0.706214
354 1 0.550679 0.840337 0.780163
355 1 0.0548014 0.612718 0.8463
356 1 0.701797 0.261952 0.24028
357 1 0.555459 0.21885 0.309571
358 1 0.288655 0.360293 0.389365
359 1 0.0435923 0.56752 0.0084725
360 1 0.95707 0.40158 0.126696
361 1 0.347986 0.656083 0.236243
362 1 0.073362 0.283636 0.7795
363 1 0.811431 0.767867 0.822673
364 1 0.717232 0.313691 0.956111
365 1 0.124639 0.771908 0.301418
366 1 0.123636 0.953269 0.823578
367 1 0.103022 0.0139487 0.211085
368 1 0.941605 0.138965 0.300051
369 1 0.352361 0.118852 0.853874
370 1 0.994513 0.523037 0.679626
371 1 0.314327 0.791828 0.0241057
372 1 0.899888 0.309793 0.869934
373 1 0.449778 0.690782 0.00563667
374 1 0.696398 0.742289 0.579853
375 1 0.240266 0.489079 0.0994893
376 1 0.158725 0.831137 0.504066
377 1 0.249971 0.755497 0.702233
378 1 0.375935 0.886114 0.951511
379 1 0.423811 0.521753 0.272537
380 1 0.522273 0.716998 0.149633
381 1 0.78929 0.0453587 0.918447
382 1 0.466689 0.99817 0.0129911
383 1 0.119922 0.0704529 0.628553
384 1 0.909603 0.213992 0.0105572
385 1 0.614785 0.154947 0.0166817
386 1 0.474486 0.583486 0.116146
387 1 0.270722 0.938314 0.941325
388 1 0.330242 0.115627 0.443982
389 1 0.156921 0.134815 0.719593
390 1 0.836369 0.25962 0.052756
391 1 0.25762 0.899287 0.823628
392 1 0.162696 0.88464 0.685453
393 1 0.135875 0.705136 0.120948
394 1 0.682561 0.320011 0.717001
395 1 0.48743 0.419231 0.349545
396 1 0.9163 0.369604 0.887243
397 1 0.0943312 0.570348 0.581453
398 1 0.292268 0.503318 0.248006
399 1 0.331025 0.15262 0.2334
400 1 0.758904 0.828849 0.991958
401 1 0.907049 0.0649811 0.86996
402 1 0.325198 0.0918407 0.696763
403 1 0.584243 0.704838 0.0989845
404 1 0.606567 0.504929 0.935776
405 1 0.573178 0.141724 0.124984
406 1 0.868698 0.0746593 0.0889894
407 1 0.431678 0.716611 0.345341
408 1 0.712084 0.976681 0.366853
409 1 0.903269 0.960805 0.300238
410 1 0.0340545 0.410399 0.112184
411 1 0.225814 0.0460464 0.590227
412 1 0.406852 0.023733 0.383427
413 1 0.335036 0.0766277 0.996967
414 1 0.401207 0.832724 0.0422388
415 1 0.747762 0.384264 0.325398
416 1 0.421607 0.198258 0.0873835
417 1 0.387382 0.499586 0.858787
418 1 0.19524 0.627593 0.166697
419 1 0.736323 0.798688 0.657139
420 1 0.318094 0.537956 0.805662
421 1 0.432863 0.429265 0.906743
422 1 0.418471 0.121602 0.334961
423 1 0.926449 0.319772 0.926344
424 1 0.56506 0.963229 0.473711
425 1 0.0936393 0.21239 0.253193
426 1 0.555505 0.047487 0.3747
427 1 0.557806 0.547885 0.41199
428 1 0.19837 0.0349848 0.0432778
429 1 0.819263 0.737967 0.0545359
430 1 0.55761 0.17473 0.0302058
431 1 0.764441 0.751204 0.946354
432 1 0.490062 0.405271 0.595616
433 1 0.0665975 0.907977 0.616719
434 1 0.91091 0.909024 0.539968
435 1 0.897758 0.231889 0.415331
436 1 0.0143285 0.170008 0.33781
437 1 0.206068 0.970319 0.263808
438 1 0.393041 0.55334 0.820835
439 1 0.201485 0.652258 0.854639
440 1 0.254352 0.810997 0.511439
441 1 0.792838 0.205841 0.230405
442 1 0.154594 0.94528 0.275635
443 1 0.885248 0.0801513 0.182801
444 1 0.178044 0.354553 0.594031
445 1 0.992439 0.154216 0.438569
446 1 0.0584522 0.15263 0.026476
447 1 0.686217 0.330422 0.603502
448 1 0.680748 0.26097 0.390304
449 1 0.914812 0.270092 0.96774
450 1 0.315741 0.714667 0.509946
451 1 0.593498 0.671155 0.630347
452 1 0.518814 0.815053 0.176792
453 1 0.291788 0.297264 0.16314
454 1 0.03878 0.1933 0.842727
455 1 0.282393 0.602646 0.340018
456 1 0.745627 0.856675 0.819992
457 1 0.0155699 0.984864 0.277962
458 1 0.459741 0.275626 0.0191893
459 1 0.72101 0.0947519 0.21241
460 1 0.917497 0.302372 0.584716
461 1 0.0753467 0.874339 0.51922
462 1 0.207415 0.137087 0.0312547
463 1 0.315548 0.880265 0.837911
464 1 0.908932 0.638367 0.0450126
465 1 0.91161 0.0656554 0.652818
466 1 0.820634 0.298322 0.171915
467 1 0.983013 0.924627 0.819355
468 1 0.387342 0.1637 0.507512
469 1 0.991662 0.232012 0.399199
470 1 0.908729 0.976589 0.420423
471 1 0.904753 0.348424 0.11427
472 1 0.84929 0.366205 0.200523
473 1 0.981479 0.188019 0.720235
474 1 0.319717 0.260035 0.641835
475 1 0.625826 0.995132 0.210067
476 1 0.821433 0.973946 0.915522
477 1 0.645398 0.159005 0.225166
478 1 0.237813 0.403715 0.355106
479 1 0.805043 0.227559 0.639078
480 1 0.662029 0.478096 0.178815
481 1 0.278432 0.368859 0.897585
482 1 0.895749 0.246314 0.910103
483 1 0.234975 0.932516 0.10968
484 1 0.564245 0.0727653 0.226146
485 1 0.00080356 0.379026 0.435784
486 1 0.0740569 0.414941 0.97905
487 1 0.908571 0.343411 0.0529999
488 1 0.966947 0.843041 0.995333
489 1 0.881201 0.0664198 0.811113
490 1 0.0471245 0.308919 0.696635
491 1 0.644289 0.923451 0.589335
492 1 0.543232 0.349166 0.749201
493 1 0.0829599 0.250582 0.3798
494 1 0.376386 0.888538 0.72967
495 1 0.231151 0.952317 0.366022
496 1 0.464429 0.636821 0.807345
497 1 0.180487 0.706611 0.0476419
498 1 0.225543 0.0730064 0.424795
499 1 0.965953 0.930956 0.0654956
500 1 0.40826 0.86037 0.835257
501 1 0.501234 0.955883 0.227417
502 1 0.258283 0.133111 0.200267
503 1 0.365474 0.377103 0.962792
504 1 0.665361 0.947291 0.189426
505 1 0.59276 0.528943 0.611141
506 1 0.168516 0.289188 0.449762
507 1 0.246553 0.420764 0.55222
508 1 0.47459 0.0654651 0.787665
509 1 0.619924 0.683885 0.206854
510 1 0.221088 0.846319 0.178452
511 1 0.130574 0.967236 0.165974
512 1 0.249812 0.576499 0.225555
513 1 0.572687 0.351601 0.202074
514 1 0.304315 0.119624 0.598772
515 1 0.139136 0.873991 0.214072
516 1 0.763039 0.452924 0.22929
517 1 0.605166 0.329131 0.772156
518 1 0.634825 0.83666 0.68577
519 1 0.0915509 0.464761 0.356942
520 1 0.334196 0.764468 0.606854
521 1 0.54789 0.264725 0.0161943
522 1 0.301441 0.288685 0.437439
523 1 0.28599 0.26873 0.994856
524 1 0.109686 0.217675 0.886165
525 1 0.0352679 0.870363 0.808199
526 1 0.445596 0.172001 0.90121
527 1 0.00431563 0.919744 0.885124
528 1 0.0863911 0.16078 0.822539
529 1 0.973789 0.498661 0.204753
530 1 0.41029 0.489108 0.947897
531 1 0.220537 0.187402 0.135192
532 1 0.280453 0.182058 0.806009
533 1 0.544313 0.508153 0.654075
534 1 0.919641 0.898361 0.412267
535 1 0.0826859 0.578533 0.0465834
536 1 0.187002 0.160426 0.356266
537 1 0.295221 0.275831 0.741758
538 1 0.468284 0.60193 0.856628
539 1 0.105458 0.80334 0.640205
540 1 0.388543 0.403743 0.177939
541 1 0.582843 0.614806 0.02557
542 1 0.319591 0.443582 0.0429531
543 1 0.716856 0.226748 0.563489
544 1 0.0289399 0.444409 0.164196
545 1 0.190389 0.364296 0.460433
546 1 0.351419 0.491469 0.551939
547 1 0.392048 0.687127 0.939055
548 1 0.875668 0.95206 0.89358
549 1 0.58205 0.810674 0.0477439
550 1 0.763245 0.57517 0.930611
551 1 0.9837 0.324405 0.475722
552 1 0.111318 0.31364 0.96193
553 1 0.819316 0.333844 0.0657652
554 1 0.62606 0.521413 0.539894
555 1 0.904256 0.402358 0.156161
556 1 0.138968 0.0510635 0.95235
557 1 0.264826 0.49859 0.757328
558 1 0.738481 0.206952 0.45645
559 1 0.943699 0.888248 0.137985
560 1 0.88638 0.137032 0.20833
561 1 0.73758 0.981837 0.617515
562 1 0.0746797 0.402723 0.153809
563 1 0.145459 0.629454 0.903295
564 1 0.410592 0.760719 0.309035
565 1 0.971763 0.63053 0.142124
566 1 0.870393 0.920794 0.449598
567 1 0.433513 0.278845 0.529304
568 1 0.551204 0.5868 0.650948
569 1 0.766834 0.0105156 0.804353
570 1 0.954231 0.531906 0.896555
571 1 0.149095 0.888598 0.896009
572 1 0.33716 0.748191 0.951473
573 1 0.328501 0.538687 0.414
574 1 0.329263 0.290977 0.550894
575 1 0.217035 0.603793 0.451583
576 1 0.0668848 0.856931 0.968992
577 1 0.081894 0.450958 0.112088
578 1 0.189436 0.0578566 0.785252
579 1 0.330553 0.507441 0.0633629
580 1 0.755913 0.979315 0.923893
581 1 0.304238 0.575292 0.864998
582 1 0.655854 0.556352 0.900557
583 1 0.613618 0.332874 0.955065
584 1 0.0313817 0.593723 0.241138
585 1 0.482811 0.50258 0.773827
586 1 0.0289234 0.319232 0.949387
587 1 0.166674 0.0774061 0.443932
588 1 0.0673153 0.18853 0.170713
589 1 0.341963 0.598178 0.589742
590 1 0.918902 0.384232 0.831745
591 1 0.641565 0.167318 0.854678
592 1 0.615 0.618067 0.966901
593 1 0.624251 0.286135 0.560318
594 1 0.1139 0.0739198 0.141948
595 1 0.376691 0.446152 0.0139825
596 1 0.953356 0.17382 0.216039
597 1 0.940713 0.940403 0.92827
598 1 0.238165 0.758582 0.0182857
599 1 0.965123 0.970211 0.124441
600 1 0.932642 0.76846 0.760351
601 1 0.0461355 0.281916 0.139487
602 1 0.20843 0.209104 0.596035
603 1 0.151357 0.95233 0.540493
604 1 0.535726 0.754967 0.198208
605 1 0.346606 0.0626623 0.384108
606 1 0.677036 0.445936 0.710797
607 1 0.546759 0.728451 0.723197
608 1 0.372695 0.951034 0.930224
609 1 0.867986 0.595408 0.988068
610 1 0.911809 0.375005 0.292914
611 1 0.600671 0.900204 0.258175
612 1 0.299736 0.509788 0.135082
613 1 0.167719 0.0511705 0.207945
614 1 0.0952532 0.535883 0.00256194
615 1 0.427995 0.956957 0.200246
616 1 0.18613 0.545251 0.188937
617 1 0.531259 0.494166 0.864601
618 1 0.26355 0.450134 0.679206
619 1 0.380122 0.745386 0.371453
620 1 -0.000316977 0.0356134 0.247457
621 1 0.710958 0.529919 0.279876
622 1 0.403319 0.327084 0.399981
623 1 0.810129 0.487738 0.123637
624 1 0.800503 0.313438 0.543026
625 1 0.0403138 0.743292 0.658957
626 1 0.275519 0.42514 0.974846
627 1 0.192497 0.429045 0.923784
628 1 0.155813 0.474664 0.354828
629 1 0.827695 0.0920383 0.414882
630 1 0.322699 0.87535 0.323527
631 1 0.85705 0.873974 0.2442
632 1 0.690731 0.568825 0.0148289
633 1 0.0541639 0.070476 0.24441
634 1 0.646273 0.420119 0.20046
635 1 0.814409 0.502857 0.268437
636 1 0.726968 0.761714 0.344882
637 1 0.631058 0.164462 0.538283
638 1 0.625109 0.702972 0.951552
639 1 0.743633 0.0270047 0.964259
640 1 0.292155 0.831449 0.298611
641 1 0.570756 0.692901 0.778031
642 1 0.769359 0.59568 0.509321
643 1 0.609216 0.712184 0.829659
644 1 0.916078 0.435071 0.252025
645 1 0.000253038 0.00570034 0.545192
646 1 0.455952 0.506172 0.195868
647 1 0.684888 0.0885802 0.11023
648 1 0.791903 0.123123 0.358858
649 1 0.0588382 0.898424 0.903682
650 1 0.986331 0.253362 0.998578
651 1 0.244234 0.71983 0.821262
652 1 0.787359 0.993218 0.133536
653 1 0.678236 0.414366 0.792834
654 1 0.874984 0.156428 0.262832
655 1 0.197896 0.680494 0.348674
656 1 0.439083 0.664661 0.854275
657 1 0.310971 0.897966 0.137732
658 1 0.776976 0.59339 0.390667
659 1 0.52391 0.291354 0.841429
660 1 0.694477 0.709137 0.846217
661 1 0.223282 0.468887 0.570195
662 1 0.994887 0.743101 0.41281
663 1 0.693758 0.0262412 0.32191
664 1 0.340988 0.623306 0.0231849
665 1 0.783036 0.405596 0.0783253
666 1 0.929167 0.781403 0.198249
667 1 0.451086 0.325192 0.356155
668 1 0.117237 0.590693 0.374654
669 1 0.602913 0.275504 0.924687
670 1 0.455928 0.55929 0.53671
671 1 0.717163 0.466554 0.177673
672 1 0.856657 0.142363 0.0848793
673 1 0.789345 0.77497 0.535526
674 1 0.131312 0.670291 0.267614
675 1 0.368712 0.258044 0.920058
676 1 0.370528 0.149557 0.284647
677 1 0.635979 0.580733 0.03131
678 1 0.990015 0.76226 0.776317
679 1 0.0352334 0.814203 0.00480093
680 1 0.0809613 0.672251 0.114576
681 1 0.307613 0.82335 0.474213
682 1 0.836245 0.832829 0.152599
683 1 0.24471 0.0821354 0.887573
684 1 0.92402 0.204442 0.153998
685 1 0.976262 0.805543 0.0812027
686 1 0.00504357 0.45487 0.44203
687 1 0.840162 0.687501 0.474503
688 1 0.322623 0.87697 0.896844
689 1 0.327903 0.241191 0.177258
690 1 0.267758 0.198289 0.436573
691 1 0.907252 0.0133331 0.476168
692 1 0.808293 0.968453 0.799607
693 1 0.288375 0.670968 0.816188
694 1 0.438319 0.0459659 0.0287788
695 1 0.969876 0.271415 0.796869
696 1 0.324678 0.930573 0.476598
697 1 0.765811 0.26207 0.186764
698 1 0.118351 0.650928 0.702858
699 1 0.66756 0.770467 0.194676
700 1 0.783759 0.179365 0.342162
701 1 0.259765 0.790196 0.195493
702 1 0.977155 0.0908393 0.876898
703 1 0.549236 0.451905 0.479709
704 1 0.795708 0.830288 0.83057
705 1 0.175972 0.914934 0.104631
706 1 0.598542 0.805067 0.465669
707 1 0.850872 0.113049 0.305041
708 1 0.840657 0.994925 0.574968
709 1 0.289912 0.30064 0.363777
710 1 0.985482 0.817942 0.805616
711 1 0.250251 0.213492 0.845201
712 1 0.838738 0.756691 0.882303
713 1 0.412133 0.71352 0.530907
714 1 0.0211988 0.488634 0.747294
715 1 0.333782 0.758597 0.295271
716 1 0.252704 0.633478 0.611282
717 1 0.423235 0.821953 0.104726
718 1 0.417609 0.092572 0.754355
719 1 0.691317 0.203691 0.350915
720 1 0.956408 0.655174 0.787528
721 1 0.759814 0.890992 0.393685
722 1 0.461374 0.683427 0.911176
723 1 0.282244 0.750905 0.0717151
724 1 0.495753 0.679048 0.411759
725 1 0.0330059 0.0674194 0.823498
726 1 0.44363 0.355878 0.443901
727 1 0.192468 0.20339 0.440335
728 1 0.91729 0.395438 0.95014
729 1 0.580768 0.455571 0.351958
730 1 0.294482 0.805644 0.90458
731 1 0.250801 0.446868 0.234217
732 1 0.704484 0.62519 0.282427
733 1 0.194022 0.517436 0.350823
734 1 0.690833 0.997303 0.93816
735 1 0.207258 0.923451 0.769741
736 1 0.231422 0.983743 0.955708
737 1 0.0583081 0.557185 0.885344
738 1 0.309641 0.224332 0.532403
739 1 0.546295 0.513497 0.168386
740 1 0.418365 0.966057 0.0900525
741 1 0.0463492 0.247868 0.713623
742 1 0.624095 0.163056 0.330989
743 1 0.0195178 0.649667 0.390557
744 1 0.564667 0.0479873 0.551474
745 1 0.649764 0.945407 0.358335
746 1 0.577394 0.180414 0.959977
747 1 0.306415 0.276307 0.239109
748 1 0.992568 0.776854 0.281226
749 1 0.772335 0.281695 0.896005
750 1 0.922594 0.435921 0.328885
751 1 0.951916 0.546212 0.834325
752 1 0.925035 0.608672 0.172846
753 1 0.518057 0.194514 0.248791
754 1 0.145522 0.190727 0.713996
755 1 0.770461 0.395914 0.3964
756 1 0.906672 0.477559 0.37926
757 1 0.375339 0.764718 0.253685
758 1 0.80678 0.78806 0.954824
759 1 0.482358 0.117495 0.212676
760 1 0.786889 0.0312084 0.858655
761 1 0.0168623 0.499484 0.165959
762 1 0.337633 0.169156 0.175208
763 1 0.0465009 0.799144 0.0623959
764 1 0.662619 0.41224 0.0959454
765 1 0.054871 0.184371 0.725357
766 1 0.224801 0.280788 0.142609
767 1 0.449941 0.810107 0.72854
768 1 0.0132093 0.75512 0.191744
769 1 0.334959 0.906196 0.679319
770 1 0.0837133 0.0718176 0.517923
771 1 0.573301 0.983172 0.659756
772 1 0.0788466 0.301433 0.553253
773 1 0.402691 0.874296 0.408188
774 1 0.0188379 0.401689 0.778266
775 1 0.157994 0.0415256 0.583768
776 1 0.277576 0.00717631 0.0998381
777 1 0.822655 0.173717 0.970901
778 1 0.592989 0.896276 0.669728
779 1 0.290256 0.956177 0.349491
780 1 0.585252 0.811337 0.401635
781 1 0.28955 0.536793 0.93631
782 1 0.777823 0.493113 0.174552
783 1 0.4617 0.0151993 0.954517
784 1 0.259337 0.76082 0.122441
785 1 0.770545 0.649973 0.275638
786 1 0.752081 0.342388 0.899317
787 1 0.942521 0.289887 0.187554
788 1 0.418059 0.32651 0.929081
789 1 0.725407 0.453042 0.41518
790 1 0.495106 0.244179 0.166211
791 1 0.239172 0.192175 0.325713
792 1 0.340938 0.926803 0.547267
793 1 0.949792 0.779782 0.450929
794 1 0.632113 0.988913 0.0914137
795 1 0.22521 0.788064 0.078375
796 1 0.805028 0.629122 0.94343
797 1 0.960286 0.704118 0.949519
798 1 0.852243 0.885454 0.527795
799 1 0.277825 0.899506 0.0481004
800 1 0.507125 0.440079 0.878634
801 1 0.653312 0.806206 0.629012
802 1 0.131135 0.906839 0.165971
803 1 0.209911 0.240964 0.097074
804 1 0.554239 0.244757 0.872733
805 1 0.41903 0.0694362 0.136973
806 1 0.172218 0.51695 0.888598
807 1 0.476454 0.398682 0.459916
808 1 0.313965 0.308418 0.0481989
809 1 0.0454351 0.34947 0.882096
810 1 0.379101 0.984211 0.151308
811 1 0.0724605 0.355064 0.608469
812 1 0.191906 0.136315 0.454299
813 1 0.310424 0.0157028 0.531328
814 1 0.50738 0.280724 0.97672
815 1 0.392502 0.541276 0.750899
816 1 0.319263 0.209756 0.0939606
817 1 0.368688 0.537814 0.363799
818 1 0.553002 0.130833 0.679171
819 1 0.319614 0.659834 0.486868
820 1 0.108784 0.913754 0.0750477
821 1 0.736364 0.23007 0.308279
822 1 0.20495 0.108818 0.589285
823 1 0.469949 0.673533 0.476039
824 1 0.217792 0.305736 0.279508
825 1 0.686379 0.0401516 0.255377
826 1 0.908327 0.713016 0.42194
827 1 0.15299 0.746414 0.173347
828 1 0.558592 0.939365 0.254648
829 1 0.874885 0.124446 0.515831
830 1 0.10805 0.917976 0.871571
831 1 0.451281 0.864699 0.15507
832 1 0.825138 0.0514876 0.194896
833 1 0.191385 0.230224 0.325151
834 1 0.585081 0.966934 0.773446
835 1 0.0733162 0.472692 0.716023
836 1 0.724335 0.786172 0.508335
837 1 0.610606 0.909767 0.115927
838 1 0.860772 0.194035 0.487667
839 1 0.936983 0.956121 0.994229
840 1 0.776029 0.772454 0.0806124
841 1 0.223299 0.98399 0.889069
842 1 0.222316 0.0413686 0.647696
843 1 0.300132 0.0139419 0.33366
844 1 0.422831 0.745467 0.142275
845 1 0.507944 0.401266 0.145254
846 1 0.0287601 0.903078 0.0206292
847 1 0.720145 0.896016 0.991674
848 1 0.189216 0.514933 0.0807581
849 1 0.246969 0.225773 0.555234
850 1 0.278586 0.175654 0.15186
851 1 0.547954 0.0856021 0.875834
852 1 0.892933 0.735078 0.197202
853 1 0.161246 0.927629 0.0339862
854 1 0.556331 0.371743 0.133249
855 1 0.0498463 0.931694 0.0811189
856 1 0.377257 0.237311 0.812767
857 1 0.285461 0.344032 0.213956
858 1 0.935927 0.442737 0.0632254
859 1 0.907533 0.699941 0.628419
860 1 0.625886 0.317591 0.606499
861 1 0.824196 0.293688 0.278239
862 1 0.438214 0.357771 0.284088
863 1 0.697402 0.829865 0.318363
864 1 0.47154 0.182317 0.492234
865 1 0.67648 0.362206 0.183732
866 1 0.206566 0.0960548 0.701126
867 1 0.862417 0.219401 0.205704
868 1 0.713739 0.036674 0.385881
869 1 0.0870147 0.073466 0.195409
870 1 0.412032 0.32716 0.144239
871 1 0.848521 0.344621 0.126747
872 1 0.140502 0.0387723 0.0945699
873 1 0.641948 0.270412 0.972895
874 1 0.79563 0.0551529 0.282414
875 1 0.575631 0.713335 0.0440914
876 1 0.741332 0.892782 0.770394
877 1 0.579735 0.837305 0.168306
878 1 0.897981 0.900013 0.196764
879 1 0.154322 0.255098 0.0741345
880 1 0.00951885 0.959307 0.452082
881 1 0.530021 0.502108 0.514612
882 1 0.870142 0.428855 0.977875
883 1 0.327651 0.055401 0.442826
884 1 0.923601 0.669443 0.172902
885 1 0.647483 0.723059 0.44749
886 1 0.0254535 0.0812412 0.619532
887 1 0.801066 0.132571 0.802319
888 1 0.662914 0.0506137 0.187917
889 1 0.953325 0.474971 0.289475
890 1 0.784108 0.670254 0.0556248
891 1 0.439383 0.628429 0.0151974
892 1 0.669398 0.328087 0.989347
893 1 0.00439959 0.51144 0.857
894 1 0.0186875 0.619258 0.736089
895 1 0.787372 0.464057 0.535582
896 1 0.943032 0.954896 0.709069
897 1 0.160277 0.950613 0.872336
898 1 0.856716 0.352457 0.993547
899 1 0.564088 0.103524 0.938313
900 1 0.325485 0.428376 0.691541
901 1 0.595789 0.559769 0.356495
902 1 0.271942 0.508721 0.820797
903 1 0.487472 0.972269 0.131986
904 1 0.493413 0.0436797 0.676373