ITEM: TIMESTEP
52600
ITEM: NUMBER OF ATOMS
4000
ITEM: BOX BOUNDS pp pp pp
0.0000000000000000e+00 1.6795961913825074e+01
0.0000000000000000e+00 1.6795961913825074e+01
0.0000000000000000e+00 1.6795961913825074e+01
ITEM: ATOMS id type xs ys zs
1 1 0.175276 0.311943 0.137661
2 1 0.0684167 0.00862912 0.80039
3 1 0.980552 0.611066 0.968145
4 1 0.616313 0.0482902 0.206077
5 1 0.129782 0.883203 0.868786
6 1 0.478297 0.660854 0.863806
7 1 0.0613554 0.765416 0.695854
8 1 0.182986 0.110697 0.327688
9 1 0.456089 0.222295 0.152146
10 1 0.557962 0.223817 0.700125
11 1 0.101848 0.10605 0.17655
12 1 0.292842 0.711943 0.838522
13 1 0.255146 0.00390414 0.102861
14 1 0.490564 0.835835 0.933253
15 1 0.585677 0.153864 0.0748858
16 1 0.278803 0.746473 0.99085
17 1 0.68104 0.2183 0.79465
18 1 0.488565 0.00586428 0.651855
19 1 0.567434 0.153931 0.476732
20 1 0.657449 0.1936 0.0610568
21 1 0.445528 0.997403 0.189567
22 1 0.6656 0.24824 0.977146
23 1 0.69019 0.231952 0.86205
24 1 0.863391 0.119274 0.0358837
25 1 0.783448 0.719514 0.0736421
26 1 0.635224 0.345952 0.100702
27 1 0.838339 0.0995817 0.145316
28 1 0.435397 0.969253 0.737124
29 1 0.19927 0.801327 0.219826
30 1 0.811004 0.970758 0.873103
31 1 0.0765449 0.000132643 0.204245
32 1 0.25238 0.133976 0.0910663
33 1 0.960799 0.941585 0.158929
34 1 0.75389 0.087219 0.0940461
35 1 0.0240481 0.759482 0.346831
36 1 0.989647 0.15604 0.057358
37 1 0.698871 0.562438 0.0513179
38 1 0.420616 0.89072 0.0250454
39 1 0.0141867 0.294662 0.655637
40 1 0.856859 0.956943 0.139917
41 1 0.753417 0.152132 0.833568
42 1 0.985751 0.988016 0.451514
43 1 0.951309 0.177999 0.343842
44 1 0.296838 0.721739 0.304107
45 1 0.158782 0.0499438 0.141408
46 1 0.647161 0.386059 0.960652
47 1 0.424559 0.700038 0.394396
48 1 0.0754851 0.519106 0.262831
49 1 0.283812 0.255258 0.846481
50 1 0.446977 0.940781 0.193558
51 1 0.488951 0.0495407 0.208179
52 1 0.0341279 0.348954 0.888161
53 1 0.250169 0.211508 0.0239227
54 1 0.252007 0.753493 0.857291
55 1 0.629182 0.410012 0.385672
56 1 0.383987 0.133534 0.0530206
57 1 0.465467 0.339364 0.194009
58 1 0.663242 0.145417 0.989303
59 1 0.194291 0.244098 0.151942
60 1 0.32613 0.539085 0.116985
61 1 0.50847 0.5326 0.905019
62 1 0.352415 0.286567 0.915067
63 1 0.426448 0.233021 0.0233016
64 1 0.418618 0.177427 0.760764
65 1 0.417265 0.224927 0.927168
66 1 0.480345 0.676349 0.195308
67 1 0.312433 0.479116 0.140598
68 1 0.874969 0.476252 0.995518
69 1 0.36976 0.0900276 0.853108
70 1 0.809708 0.0914309 0.591611
71 1 0.813637 0.0600884 0.097046
72 1 0.543421 0.0561232 0.781878
73 1 0.893383 0.0834472 0.984427
74 1 0.970859 0.847202 0.106908
75 1 0.788507 0.655905 0.957228
76 1 0.649533 0.967946 0.98495
77 1 0.725657 0.0430803 0.0448336
78 1 0.926852 0.757841 0.447199
79 1 0.660231 0.824982 0.067651
80 1 0.518731 0.484633 0.977662
81 1 0.902801 0.0937852 0.926506
82 1 0.0171179 0.990815 0.993844
83 1 0.79796 0.928873 0.271694
84 1 0.194619 0.464971 0.259795
85 1 0.956451 0.863097 0.569934
86 1 0.884932 0.409002 0.842015
87 1 0.583982 0.332401 0.72417
88 1 0.19806 0.081586 0.0498324
89 1 0.583035 0.866358 0.195157
90 1 0.99869 0.94209 0.952399
91 1 0.963394 0.164732 0.769705
92 1 0.0509222 0.434166 0.125732
93 1 0.32834 0.0885855 0.807534
94 1 0.112262 0.0185464 0.836405
95 1 0.435893 0.483618 0.734951
96 1 0.59019 0.335915 0.141742
97 1 0.269737 0.151903 0.0233846
98 1 0.623312 0.966805 0.341347
99 1 0.278455 0.872215 0.43971
100 1 0.677414 0.272427 0.819675
101 1 0.570896 0.132118 0.534066
102 1 0.391653 0.0528996 0.974453
103 1 0.908623 0.317236 0.963262
104 1 0.764966 0.258231 0.144408
105 1 0.324195 0.102597 0.0914173
106 1 0.842776 0.205427 0.750097
107 1 0.619793 0.799356 0.3996
108 1 0.792497 0.337384 0.993373
109 1 0.272497 0.664519 0.433986
110 1 0.639879 0.312782 0.985931
111 1 0.762428 0.654893 0.848289
112 1 0.596868 0.273628 0.0120684
113 1 0.0272025 0.00306519 0.0670283
114 1 0.753962 0.581464 0.408312
115 1 0.737968 0.0699391 0.247383
116 1 0.370999 0.460606 0.342237
117 1 0.158531 0.166915 0.19396
118 1 0.481193 0.133826 0.263691
119 1 0.948961 0.112322 0.371824
120 1 0.564135 0.423991 0.94686
121 1 0.227603 0.468933 0.879535
122 1 0.195148 0.078125 0.798077
123 1 0.149876 0.483179 0.982759
124 1 0.347156 0.676051 0.923967
125 1 0.226281 0.291791 0.0987091
126 1 0.482476 0.443955 0.316671
127 1 0.649427 0.945522 0.521176
128 1 0.208726 0.492172 0.776553
129 1 0.624099 0.189048 0.63408
130 1 0.683087 0.417239 0.0277563
131 1 0.791581 0.524151 0.698009
132 1 0.39551 0.436113 0.945463
133 1 0.99571 0.993719 0.615439
134 1 0.00703102 0.446333 0.714408
135 1 0.331214 0.356602 0.971031
136 1 0.367164 0.0250936 0.91316
137 1 0.450201 0.149579 0.930928
138 1 0.228945 0.113603 0.00978578
139 1 0.664456 0.384531 0.340662
140 1 0.0668288 0.224868 0.272807
141 1 0.928319 0.194498 0.536556
142 1 0.5641 0.420742 0.0860091
143 1 0.479086 0.340747 0.0748345
144 1 0.797907 0.823264 0.428849
145 1 0.848986 0.268929 0.741711
146 1 0.702653 0.615712 0.300583
147 1 0.354945 0.468962 0.0627284
148 1 0.475743 0.36735 0.842988
149 1 0.0691865 0.243347 0.0587424
150 1 0.824308 0.363619 0.0463398
151 1 0.0943665 0.186683 0.179341
152 1 0.0755511 0.400192 0.000263707
153 1 0.00263576 0.758465 0.205929
154 1 0.52469 0.336036 0.741396
155 1 0.791182 0.387883 0.561114
156 1 0.0833212 0.0614881 0.0387737
157 1 0.816855 0.349494 0.108398
158 1 0.143969 0.448291 0.504202
159 1 0.605502 0.116772 0.888289
160 1 0.640863 0.717003 0.363937
161 1 0.94326 0.150369 0.12206
162 1 0.775867 0.334428 0.0666571
163 1 0.00199208 0.457038 0.308915
164 1 0.0674477 0.560402 0.87934
165 1 0.0269707 0.624025 0.716521
166 1 0.433117 0.721205 0.930695
167 1 0.0384457 0.231115 0.32914
168 1 0.845716 0.737101 0.592894
169 1 0.246181 0.626845 0.969126
170 1 0.341843 0.592495 0.345126
171 1 0.0810463 0.45024 0.265232
172 1 0.200799 0.20479 0.211981
173 1 0.114796 0.409469 0.0640423
174 1 0.0525569 0.484491 0.0834544
175 1 0.273167 0.362254 0.34819
176 1 0.142177 0.136161 0.8797
177 1 0.34517 0.500259 0.926489
178 1 0.590478 0.556047 0.293862
179 1 0.427436 0.423813 0.845545
180 1 0.933278 0.211383 0.121227
181 1 0.303739 0.389547 0.0831172
182 1 0.800576 0.19776 0.855448
183 1 0.342456 0.597399 0.0595167
184 1 0.466825 0.573349 0.739967
185 1 0.653208 0.765153 0.817995
186 1 0.0366324 0.296072 0.0628134
187 1 0.236237 0.451908 0.510368
188 1 0.287187 0.275884 0.0239381
189 1 0.680276 0.29699 0.0302797
190 1 0.0395357 0.172444 0.0160611
191 1 0.711208 0.289812 0.242426
192 1 0.920365 0.531512 0.199142
193 1 0.489983 0.125499 0.133715
194 1 0.769497 0.389957 0.0313543
195 1 0.852393 0.614108 0.638756
196 1 0.755178 0.156903 0.0860083
197 1 0.662304 0.252504 0.223714
198 1 0.368833 0.420072 0.090109
199 1 0.157171 0.362046 0.602383
200 1 0.913619 0.72131 0.766223
201 1 0.0357278 0.27618 0.923564
202 1 0.258297 0.753973 0.92653
203 1 0.204099 0.599323 0.941078
204 1 0.135658 0.540687 0.953383
205 1 0.37776 0.794538 0.547622
206 1 0.320925 0.662044 0.987667
207 1 0.86702 0.763629 0.925444
208 1 0.199918 0.869096 0.765682
209 1 0.162388 0.233656 0.345533
210 1 0.377772 0.871397 0.0764763
211 1 0.12464 0.252396 0.984119
212 1 0.0959152 0.0644579 0.982969
213 1 0.811923 0.153442 0.995202
214 1 0.597142 0.540244 0.931518
215 1 0.258052 0.407125 0.865481
216 1 0.192499 0.539348 0.921332
217 1 0.206156 0.38451 0.240341
218 1 0.58256 0.631131 0.246208
219 1 0.519912 0.919084 0.288133
220 1 0.233451 0.810165 0.171521
221 1 0.555454 0.466817 0.133048
222 1 0.461735 0.51226 0.0735226
223 1 0.699731 0.667622 0.334188
224 1 0.466761 0.529883 0.629113
225 1 0.506801 0.746783 0.145925
226 1 0.606074 0.0222331 0.0932948
227 1 0.265164 0.904233 0.0828047
228 1 0.245244 0.475939 0.15876
229 1 0.2762 0.495422 0.996707
230 1 0.0906533 0.450154 0.0274466
231 1 0.939181 0.575896 0.906415
232 1 0.264312 0.372147 0.124571
233 1 0.884268 0.660208 0.111778
234 1 0.016328 0.663625 0.0776932
235 1 0.149081 0.416662 0.17758
236 1 0.745959 0.461951 0.803463
237 1 0.878041 0.137008 0.426488
238 1 0.625003 0.813319 0.851396
239 1 0.822798 0.301807 0.83028
240 1 0.671394 0.276213 0.354751
241 1 0.71524 0.998529 0.0994184
242 1 0.19023 0.083524 0.874253
243 1 0.35424 0.921701 0.692173
244 1 0.123631 0.832807 0.895974
245 1 0.774502 0.0052731 0.00343511
246 1 0.883372 0.722466 0.98622
247 1 0.120713 0.809848 0.702367
248 1 0.761174 0.773281 0.0335952
249 1 0.318828 0.80778 0.34539
250 1 0.116205 0.667553 0.882711
251 1 0.372596 0.563539 0.00143991
252 1 0.917083 0.903214 0.767349
253 1 0.191838 0.730724 0.384839
254 1 0.287613 0.31361 0.972102
255 1 0.364771 0.376444 0.29653
256 1 0.48238 0.736368 0.23517
257 1 0.565727 0.481044 0.0719402
258 1 0.125932 0.815876 0.832645
259 1 0.50355 0.702469 0.0527139
260 1 0.346654 0.621739 0.551642
261 1 0.580851 0.998502 0.89274
262 1 0.712508 0.550686 0.280665
263 1 0.106089 0.612185 0.344984
264 1 0.424334 0.50121 0.186629
265 1 0.619933 0.457568 0.836659
266 1 0.201001 0.650465 0.0306507
267 1 0.521082 0.639777 0.219106
268 1 0.949643 0.176079 0.180627
269 1 0.235389 0.709334 0.0365181
270 1 0.944617 0.268982 0.102719
271 1 0.00744935 0.170279 0.311719
272 1 0.0253543 0.390865 0.765434
273 1 0.985456 0.57388 0.715909
274 1 0.529048 0.00193931 0.81701
275 1 0.964901 0.379335 0.863517
276 1 0.720476 0.293562 0.181138
277 1 0.874232 0.570456 0.823139
278 1 0.763033 0.586834 0.777752
279 1 0.622722 0.552758 0.551824
280 1 0.369851 0.892977 0.822489
281 1 0.957531 0.691718 0.154791
282 1 0.404704 0.182563 0.818561
283 1 0.773997 0.718574 0.986374
284 1 0.870338 0.0872193 0.557905
285 1 0.951002 0.766646 0.378072
286 1 0.114997 0.325116 0.154875
287 1 0.338524 0.993252 0.17244
288 1 0.0652178 0.475453 0.611372
289 1 0.532048 0.966387 0.198731
290 1 0.569926 0.0696167 0.534485
291 1 0.314466 0.0113541 0.95545
292 1 0.419172 0.986277 0.254919
293 1 0.384995 0.59166 0.259013
294 1 0.625268 0.811405 0.185251
295 1 0.584318 0.688201 0.291283
296 1 0.403151 0.0111776 0.139798
297 1 0.834565 0.523379 0.211021
298 1 0.391266 0.756142 0.146323
299 1 0.367656 0.88882 0.130231
300 1 0.920807 0.382419 0.738605
301 1 0.365972 0.669187 0.714704
302 1 0.788351 0.670503 0.102273
303 1 0.925167 0.868037 0.00905536
304 1 0.772835 0.0415363 0.650971
305 1 0.142201 0.244037 0.887112
306 1 0.45384 0.845871 0.558307
307 1 0.751724 0.403421 0.916124
308 1 0.475389 0.902573 0.0762889
309 1 0.00577674 0.666158 0.8278
310 1 0.988521 0.19067 0.126798
311 1 0.223153 0.667765 0.519271
312 1 0.518835 0.500327 0.0401156
313 1 0.848104 0.513318 0.959839
314 1 0.82384 0.915596 0.986151
315 1 0.499707 0.024661 0.506181
316 1 0.726693 0.722701 0.367538
317 1 0.670333 0.868673 0.751177
318 1 0.605603 0.847207 0.960873
319 1 0.0734249 0.476972 0.906626
320 1 0.461694 0.733503 0.868871
321 1 0.0522884 0.842447 0.536429
322 1 0.61928 0.692459 0.243394
323 1 0.361276 0.515296 0.360101
324 1 0.954636 0.801482 0.180561
325 1 0.0860342 0.596876 0.0817755
326 1 0.0137894 0.93073 0.629427
327 1 0.952282 0.762627 0.873844
328 1 0.291961 0.791567 0.113812
329 1 0.840279 0.574857 0.87494
330 1 0.102228 0.295502 0.0339241
331 1 0.407794 0.983323 0.946253
332 1 0.519222 0.144482 0.050643
333 1 0.179816 0.0493711 0.670965
334 1 0.763909 0.785013 0.532482
335 1 0.379953 0.950214 0.122136
336 1 0.149421 0.84731 0.113542
337 1 0.582141 0.912461 0.0702956
338 1 0.0777373 0.914354 0.958806
339 1 0.560576 0.682743 0.455755
340 1 0.0927905 0.861058 0.219009
341 1 0.659882 0.699557 0.306789
342 1 0.48383 0.950607 0.045331
343 1 0.690183 0.795744 0.0147058
344 1 0.81102 0.163452 0.772518
345 1 0.80114 0.489057 0.113641
346 1 0.612286 0.361721 0.00415311
347 1 0.636448 0.150962 0.118975
348 1 0.581405 0.890545 0.292878
349 1 0.266831 0.612465 0.204344
350 1 0.454645 0.56693 0.898514
351 1 0.726462 0.671859 0.0911805
352 1 0.965358 0.0882606 0.496466
353 1 0.367599 0.730597 0.878705
354 1 0.84883 0.600909 0.992473
355 1 0.731365 0.683314 0.969758
356 1 0.787838 0.31779 0.294265
357 1 0.541186 0.167626 0.984582
358 1 0.891619 0.111017 0.713995
359 1 0.0420789 0.720228 0.244935
360 1 0.95324 0.0889041 0.98046
361 1 0.418347 0.673891 0.30888
362 1 0.319088 0.476119 0.603441
363 1 0.222695 0.873569 0.266946
364 1 0.634119 0.0782358 0.0046132
365 1 0.00482448 0.895007 0.187322
366 1 0.270654 0.881348 0.602762
367 1 0.170078 0.218455 0.0948125
368 1 0.117766 0.245808 0.389113
369 1 0.33159 0.147386 0.958767
370 1 0.103342 0.41005 0.724348
371 1 0.285218 0.0736209 0.00596204
372 1 0.122245 0.54379 0.890667
373 1 0.866415 0.489407 0.744688
374 1 0.752429 0.839087 0.60313
375 1 0.349552 0.565012 0.942901
376 1 0.807315 0.148524 0.27455
377 1 0.4957 0.76177 0.757965
378 1 0.391228 0.839775 0.883615
379 1 0.435431 0.228156 0.521011
380 1 0.22759 0.850754 0.0571084
381 1 0.668346 0.751982 0.0936082
382 1 0.502907 0.144887 0.379058
383 1 0.0525398 0.876872 0.397686
384 1 0.515829 0.984012 0.591989
385 1 0.809463 0.885859 0.128894
386 1 0.62139 0.407174 0.889557
387 1 0.515743 0.101897 0.739214
388 1 0.323075 0.0706786 0.363409
389 1 0.749496 0.091158 0.744011
390 1 0.604243 0.232664 0.0778756
391 1 0.424427 0.961755 0.884532
392 1 0.390851 0.0477801 0.665809
393 1 0.0812319 0.88635 0.0285315
394 1 0.987628 0.457799 0.652847
395 1 0.475399 0.373686 0.319544
396 1 0.926626 0.31346 0.834443
397 1 0.395802 0.495148 0.89421
398 1 0.312856 0.695087 0.465772
399 1 0.333752 0.272625 0.260496
400 1 0.71643 0.163547 0.0450949
401 1 0.0236959 0.105069 0.799586
402 1 0.264918 0.175911 0.656779
403 1 0.502935 0.627549 0.0889817
404 1 0.627133 0.153693 0.182651
405 1 0.37695 0.0387274 0.460672
406 1 0.511478 0.238602 0.149079
407 1 0.238459 0.857157 0.20814
408 1 0.479572 0.20684 0.341378
409 1 0.9315 0.142978 0.229183
410 1 0.031754 0.498484 0.961
411 1 0.156347 0.147691 0.270316
412 1 0.412651 0.217495 0.335879
413 1 0.244396 0.833091 0.804069
414 1 0.272293 0.941063 0.920029
415 1 0.707594 0.611959 0.0885558
416 1 0.545284 0.19826 0.340649
417 1 0.644463 0.556135 0.12363
418 1 0.530188 0.741038 0.277533
419 1 0.453921 0.0858026 0.28584
420 1 0.276941 0.275896 0.904833
421 1 0.473129 0.00145593 0.999678
422 1 0.674905 0.81492 0.358132
423 1 0.00352333 0.663073 0.987669
424 1 0.638153 0.965659 0.276037
425 1 0.259679 0.168386 0.168024
426 1 0.505376 0.11055 0.959517
427 1 0.729679 0.645528 0.196896
428 1 0.104531 0.725214 0.860979
429 1 0.62536 0.59688 0.270221
430 1 0.283544 0.098011 0.947542
431 1 0.833472 0.689783 0.943292
432 1 0.546551 0.0949685 0.0186549
433 1 0.694954 0.804831 0.888991
434 1 0.993859 0.0964046 0.0986335
435 1 0.651365 0.285649 0.0926143
436 1 0.928967 0.109424 0.432606
437 1 0.946671 0.98862 0.0252485
438 1 0.573331 0.312514 0.781561
439 1 0.127432 0.870211 0.720223
440 1 0.395417 0.0987764 0.47632
441 1 0.893573 0.0660786 0.28046
442 1 0.195323 0.113795 0.0985508
443 1 0.91707 0.325003 0.0792227
444 1 0.174989 0.962671 0.232896
445 1 0.0507898 0.239363 0.715453
446 1 0.0872188 0.249482 0.874743
447 1 0.642827 0.103488 0.543163
448 1 0.417532 0.185982 0.888399
449 1 0.0151819 0.166563 0.17779
450 1 0.151541 0.0197045 0.369028
451 1 0.937059 0.944328 0.841228
452 1 0.559351 0.71982 0.339156
453 1 0.209823 0.282363 0.926975
454 1 0.369464 0.784802 0.914556
455 1 0.603967 0.865271 0.397382
456 1 0.872619 0.643049 0.936707
457 1 0.058916 0.0651252 0.165067
458 1 0.548593 0.287786 0.132262
459 1 0.792495 0.0454918 0.399089
460 1 0.22847 0.446091 0.820594
461 1 0.456695 0.879791 0.41766
462 1 0.0258737 0.0339322 0.125917
463 1 0.506492 0.806297 0.68481
464 1 0.639496 0.919117 0.234799
465 1 0.730369 0.0525973 0.953502
466 1 0.580094 0.370276 0.908573
467 1 0.645813 0.846525 0.0120038
468 1 0.550959 0.148749 0.315262
469 1 0.97676 0.306223 0.988994
470 1 0.63 0.282421 0.866514
471 1 0.0164563 0.234052 0.0384218
472 1 0.959505 0.300615 0.916408
473 1 0.976018 0.00656667 0.399446
474 1 0.106143 0.324577 0.659572
475 1 0.752697 0.977137 0.566504
476 1 0.761718 0.0131573 0.898612
477 1 0.747607 0.821214 0.160252
478 1 0.311403 0.320162 0.160532
479 1 0.975892 0.149965 0.522982
480 1 0.470623 0.878287 0.242944
481 1 0.349061 0.467592 0.786163
482 1 0.928564 0.0350202 0.990544
483 1 0.299252 0.266936 0.0830231
484 1 0.0799606 0.25345 0.178642
485 1 0.968744 0.423937 0.049017
486 1 0.133127 0.458159 0.294709
487 1 0.193503 0.360934 0.0107431
488 1 0.895825 0.708074 0.926972
489 1 0.979978 0.359003 0.956236
490 1 0.186463 0.417432 0.537585
491 1 0.592846 0.111379 0.833813
492 1 0.350148 0.296796 0.980028
493 1 0.142629 0.0716535 0.711131
494 1 0.348936 0.96567 0.904921
495 1 0.366128 0.979165 0.431454
496 1 0.493282 0.446048 0.916656
497 1 0.185104 0.897826 0.0362314
498 1 0.178321 0.0860487 0.202966
499 1 0.0316567 0.119923 0.217901
500 1 0.197487 0.978637 0.771958
501 1 0.640832 0.0859375 0.279926
502 1 0.238266 0.318157 0.154034
503 1 0.492427 0.503365 0.281246
504 1 0.481275 0.615017 0.967289
505 1 0.648157 0.90899 0.625681
506 1 0.464655 0.489265 0.143673
507 1 0.882938 0.0957955 0.355749
508 1 0.669128 0.148477 0.914923
509 1 0.665503 0.355744 0.0359802
510 1 0.0957064 0.964638 0.16351
511 1 0.712974 0.237594 0.319016
512 1 0.604384 0.605371 0.52608
513 1 0.455065 0.236944 0.291802
514 1 0.950042 0.488276 0.0463848
515 1 0.226361 0.746765 0.142794
516 1 0.697734 0.401125 0.121848
517 1 0.943901 0.927453 0.0013862
518 1 0.967887 0.802293 0.443223
519 1 0.849958 0.432986 0.37799
520 1 0.0774637 0.0567031 0.262415
521 1 0.339355 0.290196 0.85532
522 1 0.336929 0.56056 0.297736
523 1 0.673029 0.929843 0.0358943
524 1 0.23936 0.536888 0.0413556
525 1 0.10564 0.421119 0.8678
526 1 0.448398 0.919471 0.939938
527 1 0.0805159 0.992745 0.948458
528 1 0.260854 0.231043 0.792289
529 1 0.707628 0.345831 0.206953
530 1 0.0804266 0.257992 0.113411
531 1 0.899772 0.236108 0.162453
532 1 0.136062 0.181273 0.914918
533 1 0.373588 0.429964 0.519315
534 1 0.924569 0.942225 0.638701
535 1 0.383805 0.638654 0.0739993
536 1 0.339019 0.3344 0.42857
537 1 0.592085 0.245472 0.754827
538 1 0.928976 0.4491 0.869087
539 1 0.426219 0.863922 0.327828
540 1 0.432423 0.278935 0.187998
541 1 0.517973 0.511282 0.164266
542 1 0.524954 0.859942 0.252862
543 1 0.389519 0.251207 0.397359
544 1 0.226337 0.246892 0.876321
545 1 0.428411 0.384707 0.19779
546 1 0.315919 0.428634 0.834803
547 1 0.48163 0.44553 0.769291
548 1 0.836828 0.219361 0.983239
549 1 0.823592 0.814626 0.14896
550 1 0.885905 0.173446 0.158564
551 1 0.967796 0.26439 0.781513
552 1 0.91274 0.207345 0.980619
553 1 0.745811 0.0303226 0.198336
554 1 0.777426 0.52895 0.410455
555 1 0.890402 0.501627 0.104744
556 1 0.0707956 0.204319 0.76623
557 1 0.223022 0.419848 0.914253
558 1 0.832179 0.289765 0.991998
559 1 0.980915 -6.04682e-05 0.252284
560 1 0.59102 0.226648 0.348646
561 1 0.749583 0.0261712 0.286242
562 1 0.0252256 0.455408 0.0162711
563 1 0.0402056 0.40872 0.063755
564 1 0.914672 0.0373451 0.224907
565 1 0.113629 0.895376 0.155726
566 1 0.918082 0.70086 0.334253
567 1 0.463972 0.18365 0.612736
568 1 0.948278 0.368284 0.241824
569 1 0.953143 0.166186 0.957556
570 1 0.0941202 0.322247 0.0973489
571 1 0.776815 0.44992 0.0390646
572 1 0.235544 0.695302 0.099869
573 1 0.303164 0.580161 0.774684
574 1 0.245494 0.222336 0.704429
575 1 0.491448 0.383658 0.771617
576 1 0.30032 0.910514 0.0309095
577 1 0.140279 0.532229 0.0180205
578 1 0.47668 0.0948765 0.799916
579 1 0.505293 0.487106 0.867829
580 1 0.394631 0.780331 0.0848334
581 1 0.578736 0.601519 0.940916
582 1 0.719383 0.406698 0.277803
583 1 0.355971 0.480525 0.842827
584 1 0.0977521 0.330632 0.986697
585 1 0.419205 0.411273 0.790432
586 1 0.923983 0.214119 0.921537
587 1 0.317204 0.77311 0.220714
588 1 0.324224 0.326202 0.0267533
589 1 0.589319 0.536969 0.497823
590 1 0.760254 0.36763 0.164229
591 1 0.83676 0.246944 0.876705
592 1 0.732469 0.380099 0.968671
593 1 0.670766 0.331881 0.295327
594 1 0.771826 0.315543 0.348205
595 1 0.566934 0.204002 0.033328
596 1 0.719993 0.16519 0.249122
597 1 0.0146191 0.540802 0.843358
598 1 0.933647 0.751031 0.294673
599 1 0.878136 0.291576 0.110882
600 1 0.711318 0.922885 0.890455
601 1 0.890127 0.154758 0.0823154
602 1 0.20125 0.459704 0.0749172
603 1 0.084077 0.169107 0.304085
604 1 0.354523 0.738371 0.43687
605 1 0.0267324 0.987227 0.933219
606 1 0.929679 0.542141 0.833105
607 1 0.28013 0.657017 0.793318
608 1 0.154523 0.0111798 0.887001
609 1 0.957089 0.616043 0.136874
610 1 0.943212 0.379265 0.0952488
611 1 0.349763 0.618906 0.224161
612 1 0.278688 0.823372 0.0633285
613 1 0.424658 0.434735 0.0208567
614 1 0.0738179 0.492481 0.14139
615 1 0.128446 0.109967 0.0658827
616 1 0.171359 0.707748 0.132384
617 1 0.714387 0.320651 0.747266
618 1 0.199856 0.382785 0.80622
619 1 0.205044 0.668271 0.384755
620 1 0.110939 0.0832277 0.115965
621 1 0.480498 0.55594 0.138481
622 1 0.529125 0.32908 0.299001
623 1 0.870988 0.585882 0.0439627
624 1 0.66077 0.0855349 0.882392
625 1 0.269629 0.771605 0.701214
626 1 0.894219 0.403626 0.0316534
627 1 0.642049 0.334194 0.916277
628 1 0.238609 0.292394 0.269784
629 1 0.701545 0.698617 0.246168
630 1 0.459538 0.701619 0.276425
631 1 0.0656412 0.636777 0.13281
632 1 0.890298 0.734899 0.114864
633 1 0.0894248 0.282091 0.276559
634 1 0.808046 0.570904 0.0415549
635 1 0.957714 0.424451 0.186022
636 1 0.668154 0.757987 0.928186
637 1 0.800935 0.272489 0.381198
638 1 0.755959 0.579456 0.922625
639 1 0.973012 0.235325 0.938125
640 1 0.218148 0.525316 0.97763
641 1 0.333199 0.718476 0.00638395
642 1 0.298883 0.868438 0.239667
643 1 0.55808 0.65845 0.0458229
644 1 0.354662 0.593717 0.119106
645 1 0.0908545 0.24784 0.572064
646 1 0.52539 0.538131 0.333107
647 1 0.431781 0.0413828 0.312636
648 1 0.0557769 0.743486 0.0853425
649 1 0.150026 0.880627 0.284858
650 1 0.986975 0.0351549 0.0291176
651 1 0.07819 0.668665 0.806852
652 1 0.246012 0.771408 0.0380611
653 1 0.804342 0.432927 0.783802
654 1 0.974885 0.31518 0.361702
655 1 0.127398 0.432058 0.398744
656 1 0.334908 0.635858 0.799456
657 1 0.50969 0.853861 0.882411
658 1 0.770609 0.612604 0.454105
659 1 0.569639 0.240759 0.880687
660 1 0.341197 0.802304 0.0774857
661 1 0.426037 0.42819 0.335247
662 1 0.797325 0.780019 0.379958
663 1 0.569356 0.98566 0.380063
664 1 0.425513 0.695089 0.146534
665 1 0.536525 0.760711 0.387108
666 1 0.00376159 0.959425 0.191156
667 1 0.39248 0.559534 0.381159
668 1 0.110217 0.657188 0.967631
669 1 0.805762 0.476475 0.38986
670 1 0.885017 0.565643 0.647136
671 1 0.747984 0.376416 0.104209
672 1 0.767033 0.317356 0.943202
673 1 0.00389579 0.653361 0.142396
674 1 0.132002 0.637574 0.0871167
675 1 0.117373 0.350881 0.712976
676 1 0.0459702 0.272355 0.228864
677 1 0.624482 0.717636 0.0841964
678 1 0.91806 0.51845 0.952421
679 1 0.0478799 0.920149 0.344415
680 1 0.0140936 0.595443 0.129712
681 1 0.427471 0.166542 0.363575
682 1 0.942714 0.632259 0.922418
683 1 0.306623 0.96646 0.993288
684 1 0.601217 0.880653 0.124996
685 1 0.125262 0.819925 0.00618353
686 1 0.186006 0.571031 0.638083
687 1 0.804129 0.836186 0.552144
688 1 0.211777 0.000573424 0.897613
689 1 0.102415 0.439851 0.789964
690 1 0.284502 0.968976 0.0526787
691 1 0.487415 0.979974 0.469019
692 1 0.72558 0.715936 0.192887
693 1 0.454098 0.734055 0.188264
694 1 0.783843 0.654078 0.170389
695 1 0.239944 0.520263 0.357839
696 1 0.389193 0.0942226 0.291221
697 1 0.724969 0.530777 0.164292
698 1 0.154986 0.426382 0.928554
699 1 0.430363 0.650286 0.0254748
700 1 0.644769 0.636095 0.373626
701 1 0.509284 0.0464198 0.0392158
702 1 0.62402 0.839084 0.904248
703 1 0.538231 0.36959 0.554449
704 1 0.144691 0.988591 0.037934
705 1 0.315938 0.752486 0.0597557
706 1 0.822129 0.784276 0.22527
707 1 0.958232 0.641118 0.199782
708 1 0.738252 0.0403745 0.510955
709 1 0.350395 0.686602 0.299748
710 1 0.984418 0.867037 0.429884
711 1 0.401172 0.669286 0.907182
712 1 0.987051 0.857262 0.899391
713 1 0.432389 0.616061 0.893851
714 1 0.929405 0.40464 0.795952
715 1 0.990782 0.401234 0.286772
716 1 0.612828 0.437237 0.600062
717 1 0.639569 0.869342 0.193593
718 1 0.209524 0.599716 0.0922428
719 1 0.199748 0.991923 0.35106
720 1 0.730261 0.939853 0.269923
721 1 0.107798 0.0262985 0.161089
722 1 0.475746 0.545603 0.0326321
723 1 0.250344 0.671424 0.225529
724 1 0.962355 0.703697 0.0582253
725 1 0.042488 0.199505 0.54604
726 1 0.343201 0.281812 0.330832
727 1 0.0125116 0.393807 0.202273
728 1 0.831055 0.488677 0.793855
729 1 0.352437 0.726066 0.340773
730 1 0.142599 0.768413 0.872762
731 1 0.570513 0.857356 0.346025
732 1 0.374667 0.662223 0.353789
733 1 0.2832 0.756479 0.169327
734 1 0.556623 0.732498 0.0391406
735 1 0.153858 0.740076 0.443081
736 1 0.236107 0.111009 0.917406
737 1 0.495499 0.636285 0.281657
738 1 0.306444 0.395178 0.268711
739 1 0.519403 0.916581 0.350777
740 1 0.188501 0.92705 0.981682
741 1 0.81073 0.688829 0.579029
742 1 0.575919 0.914907 0.360472
743 1 0.437008 0.783077 0.608348
744 1 0.509077 0.0855608 0.489985
745 1 0.573565 0.0277817 0.587372
746 1 0.605948 0.702267 0.152592
747 1 0.493196 0.0614053 0.0945174
748 1 0.139872 0.721344 0.0727764
749 1 0.704704 0.126362 0.0962338
750 1 0.698772 0.0595769 0.100869
751 1 0.64363 0.596925 0.0593652
752 1 0.431298 0.692905 0.223826
753 1 0.522162 0.0744975 0.165282
754 1 0.0819111 0.162341 0.916858
755 1 0.813796 0.381315 0.911727
756 1 0.830932 0.552154 0.0960618
757 1 0.259373 0.0247682 0.372141
758 1 0.0261763 0.574078 0.982467
759 1 0.187548 0.931817 0.277143
760 1 0.699476 0.983742 0.0404234
761 1 0.0157404 0.535993 0.134856
762 1 0.333043 0.214246 0.150438
763 1 0.0298168 0.866093 0.0713103
764 1 0.933205 0.143946 0.0143899
765 1 0.0387878 0.850105 0.785896
766 1 0.351003 0.222371 0.93328
767 1 0.123151 0.727848 0.514913
768 1 0.00898669 0.727571 0.968347
769 1 0.231197 0.845173 0.642354
770 1 0.899749 0.935947 0.185556
771 1 0.184499 0.864393 0.830299
772 1 0.931682 0.0578589 0.750962
773 1 0.443824 0.0414421 0.371311
774 1 0.207792 0.241622 0.644787
775 1 0.3788 0.876981 0.391294
776 1 0.403587 0.898097 0.178078
777 1 0.686134 0.25587 0.916065
778 1 0.48408 0.789283 0.575124
779 1 0.178224 0.912371 0.143548
780 1 0.402071 0.835903 0.611893
781 1 0.529047 0.243318 0.0914037
782 1 0.373814 0.68445 0.475638
783 1 0.5864 0.0442036 0.0166682
784 1 0.473994 0.0647422 0.855895
785 1 0.757494 0.665066 0.322139
786 1 0.968762 0.0412031 0.117495
787 1 0.758187 0.12336 0.0276319
788 1 0.552051 0.0344989 0.855861
789 1 0.686731 0.677222 0.391399
790 1 0.611206 0.0348538 0.270734
791 1 0.306118 0.950133 0.310416
792 1 0.328786 0.169328 0.201325
793 1 0.704755 0.827117 0.108819
794 1 0.412161 0.927082 0.248013
795 1 0.305921 0.892507 0.184874
796 1 0.603503 0.755982 0.280969
797 1 0.922759 0.106061 0.0770171
798 1 0.802486 0.293783 0.114022
799 1 0.362376 0.902641 0.220656
800 1 0.744523 0.768953 0.921929
801 1 0.893773 0.972206 0.698514
802 1 0.305963 0.93178 0.239206
803 1 0.200908 0.165226 0.143026
804 1 0.6103 0.415982 0.0109688
805 1 0.758697 0.887376 0.242796
806 1 0.317553 0.337617 0.910079
807 1 0.89942 0.395572 0.383279
808 1 0.374288 0.175399 0.137994
809 1 0.852043 0.969694 0.0813636
810 1 0.414538 0.786479 0.39894
811 1 0.12421 0.1368 0.337048
812 1 0.210255 0.926987 0.339312
813 1 0.104568 0.244161 0.510349
814 1 0.221591 0.058013 0.10553
815 1 0.278887 0.342283 0.552211
816 1 0.402194 0.998134 0.342656
817 1 0.900024 0.824185 0.435961
818 1 0.639666 0.98424 0.414976
819 1 0.322197 0.823695 0.509771
820 1 0.141726 0.167563 0.126645
821 1 0.825639 0.0910264 0.248376
822 1 0.96215 0.0637017 0.400744
823 1 0.461309 0.707477 0.504851
824 1 0.536336 0.372358 0.264671
825 1 0.590048 0.104766 0.20702
826 1 0.987172 0.746269 0.259902
827 1 0.825413 0.791974 0.0193383
828 1 0.559167 0.63707 0.155969
829 1 0.841445 0.315763 0.334249
830 1 0.378761 0.988707 0.629541
831 1 0.405549 0.773968 0.96425
832 1 0.581436 0.908441 0.00251772
833 1 0.614293 0.489166 0.121493
834 1 0.83273 0.0630761 0.999082
835 1 0.149763 0.246649 0.823936
836 1 0.858191 0.745877 0.0447175
837 1 0.638996 0.903386 0.982463
838 1 0.858524 0.354278 0.226873
839 1 0.866346 0.200821 0.220062
840 1 0.0340538 0.106989 0.274745
841 1 0.0490422 0.0929244 0.00256006
842 1 0.0740217 0.89931 0.730924
843 1 0.0324625 0.0448583 0.302523
844 1 0.45195 0.736924 0.795583
845 1 0.835802 0.244533 0.332464
846 1 0.158847 0.0607119 0.0148303
847 1 0.0610555 0.00603013 0.712751
848 1 0.0729894 0.569319 0.310979
849 1 0.0316406 0.231376 0.968388
850 1 0.375936 0.0958075 0.13293
851 1 0.317616 0.0129185 0.602792
852 1 0.261232 0.0266997 0.965214
853 1 0.19601 0.791231 0.827353
854 1 0.341784 0.503466 0.184287
855 1 0.208091 0.140582 0.853314
856 1 0.364748 0.146609 0.457244
857 1 0.104859 0.337892 0.423128
858 1 0.561653 0.390196 0.145936
859 1 0.733829 0.861818 0.532564
860 1 0.42299 0.294852 0.614835
861 1 0.661013 0.0484693 0.0457495
862 1 0.609286 0.27168 0.404561
863 1 0.667189 0.876276 0.573443
864 1 0.635507 0.421455 0.532849
865 1 0.639734 0.212542 0.895726
866 1 0.00644296 0.231249 0.889038
867 1 0.615134 0.792713 0.0546498
868 1 0.835082 0.163591 0.322275
869 1 0.986105 0.223181 0.212982
870 1 0.446861 0.167335 0.132021
871 1 0.853726 0.135326 0.198811
872 1 0.280805 0.0127008 0.152427
873 1 0.786918 0.184469 0.919959
874 1 0.695151 0.149812 0.177327
875 1 0.623657 0.874782 0.333984
876 1 0.0183529 0.742103 0.855756
877 1 0.664087 0.462597 0.483592
878 1 0.0766195 0.917323 0.203631
879 1 0.871269 0.293942 0.877451
880 1 0.0330646 0.865362 0.229811
881 1 0.648987 0.769411 0.551007
882 1 0.616877 0.263232 0.940756
883 1 0.294548 0.14318 0.533622
884 1 0.0228926 0.526968 0.0292708
885 1 0.234156 0.743308 0.216956
886 1 0.784447 0.140211 0.489431
887 1 0.868388 0.879306 0.138043
888 1 0.540208 0.238629 0.245323
889 1 0.249413 0.419437 0.0541045
890 1 0.942795 0.356768 0.00880283
891 1 0.458573 0.430943 0.963037
892 1 0.658483 0.10866 0.0493958
893 1 0.232366 0.351983 0.957301
894 1 0.207819 0.487919 0.549523
895 1 0.598535 0.866399 0.45738
896 1 0.0563837 0.199232 0.130502
897 1 0.142412 0.0469552 0.0699158
898 1 0.76532 0.319642 0.215237
899 1 0.38927 0.00530688 0.0777659
900 1 0.450166 0.28955 0.498359
901 1 0.753154 0.485262 0.648705