ITEM: TIMESTEP
26600
ITEM: NUMBER OF ATOMS
4000
ITEM: BOX BOUNDS pp pp pp
0.0000000000000000e+00 1.6795961913825074e+01
0.0000000000000000e+00 1.6795961913825074e+01
0.0000000000000000e+00 1.6795961913825074e+01
ITEM: ATOMS id type xs ys zs
1 1 0.939203 0.991894 0.00767807
2 1 0.0922226 0.0857165 0.0238036
3 1 0.042953 0.995199 0.0147038
4 1 0.992888 0.0347861 0.0485924
5 1 0.118929 0.982501 0.0535954
6 1 0.13332 0.0404535 0.00306496
7 1 0.115947 0.0466111 0.0732864
8 1 0.0553104 0.0316426 0.0660612
9 1 0.309083 0.0244286 0.951244
10 1 0.180134 0.0756409 0.976697
11 1 0.223483 0.931171 0.0918084
12 1 0.226088 0.0170594 0.989179
13 1 0.268125 0.051079 0.0227689
14 1 0.356361 0.10317 0.0296193
15 1 0.381003 0.0408057 0.124505
16 1 0.254517 0.0349225 0.089881
17 1 0.380448 0.938623 0.989118
18 1 0.411462 0.0682732 0.00225425
19 1 0.378607 0.0472826 0.060131
20 1 0.434282 0.083487 0.10446
21 1 0.499017 0.983651 0.0664346
22 1 0.455774 0.0347074 0.0431264
23 1 0.554303 0.947912 0.0284105
24 1 0.555184 0.0304559 0.0271034
25 1 0.53433 0.925209 0.972463
26 1 0.660387 0.0820157 0.0285517
27 1 0.642446 0.984905 0.0924974
28 1 0.61536 0.0502955 0.997953
29 1 0.724017 0.0182816 0.981844
30 1 0.721901 0.0608682 0.0404003
31 1 0.739012 0.0617363 0.100311
32 1 0.632217 0.106941 0.0875869
33 1 0.81282 0.974801 0.977022
34 1 0.817475 0.114957 0.0145855
35 1 0.737176 0.996598 0.0452628
36 1 0.769587 0.0675623 0.0034522
37 1 0.871526 -0.00102176 0.0601687
38 1 0.936672 0.060603 0.0147468
39 1 0.866927 0.948703 0.0156709
40 1 0.937221 0.0253139 0.0706646
41 1 0.99227 0.0855253 0.994231
42 1 0.0853178 0.14817 0.970915
43 1 0.0371732 0.129986 0.0274918
44 1 0.973225 0.145533 0.0509526
45 1 0.153676 0.0973901 0.0517868
46 1 0.18822 0.182675 0.943415
47 1 0.191419 0.156487 0.0664711
48 1 0.116942 0.142471 0.0312192
49 1 0.106221 0.0352853 0.937415
50 1 0.252934 0.156843 0.0461684
51 1 0.214542 0.092702 0.0307887
52 1 0.137142 0.143635 0.100114
53 1 0.288412 0.119783 1.00194
54 1 0.379636 0.162229 0.0195457
55 1 0.275083 0.0982202 0.0676343
56 1 0.27211 0.198982 0.997501
57 1 0.376659 0.0258314 0.961487
58 1 0.488301 0.186641 0.98086
59 1 0.44218 0.131028 0.0149332
60 1 0.349637 0.110437 0.0962949
61 1 0.482961 0.142813 0.923496
62 1 0.520045 0.141361 0.010475
63 1 0.569005 0.992838 0.971309
64 1 0.481553 0.110681 0.0677597
65 1 0.542936 0.0511548 0.951588
66 1 0.630976 0.16215 0.0532318
67 1 0.491311 0.0301737 0.144481
68 1 0.533445 0.0416516 0.0868887
69 1 0.596013 0.136359 0.123812
70 1 0.738333 0.189681 0.98909
71 1 0.765943 0.128098 0.058023
72 1 0.577644 0.160424 0.0113305
73 1 0.717161 0.076649 0.968799
74 1 0.843257 0.146552 0.965165
75 1 0.791549 0.18305 0.014061
76 1 0.751795 0.212539 0.048469
77 1 0.891661 0.0613381 0.0624093
78 1 0.907852 0.116082 0.0370255
79 1 0.958762 0.0870941 0.083412
80 1 0.866329 0.157225 0.0244484
81 1 0.0326424 0.204241 0.955574
82 1 0.0377463 0.259257 0.00900674
83 1 0.990078 0.176181 0.00401234
84 1 0.0159557 0.237112 0.063364
85 1 0.105085 0.215181 0.0250794
86 1 0.16372 0.247299 0.00812283
87 1 0.156001 0.211484 0.0696506
88 1 0.0979579 0.248547 0.0902287
89 1 0.205481 0.197478 0.0176575
90 1 0.252126 0.244845 0.0290601
91 1 0.221256 0.209885 0.0835447
92 1 0.191894 0.274313 0.0547414
93 1 0.306779 0.213338 0.945288
94 1 0.285334 0.264285 0.982472
95 1 0.321837 0.147076 0.0523353
96 1 0.283017 0.199799 0.0741535
97 1 0.335028 0.167948 0.969757
98 1 0.442793 0.199141 0.00942134
99 1 0.414895 0.144902 0.0732972
100 1 0.328622 0.206557 0.025931
101 1 0.523628 0.200621 0.0455641
102 1 0.608067 0.210975 0.963339
103 1 0.553036 0.222427 0.994909
104 1 0.508555 0.291047 0.0388674
105 1 0.502648 0.0857851 0.992902
106 1 0.661578 0.184963 0.990586
107 1 0.704579 0.230957 0.0129059
108 1 0.568521 0.165762 0.0748152
109 1 0.634379 0.12968 0.993328
110 1 0.77315 0.251727 1.00235
111 1 0.705587 0.233307 0.155456
112 1 0.753866 0.247553 0.0988604
113 1 0.853488 0.218227 0.991826
114 1 0.917195 0.247856 0.0300238
115 1 0.880748 0.199005 0.0622296
116 1 0.818639 0.235687 0.0457699
117 1 0.931602 0.186095 0.0260484
118 1 0.969572 0.240549 0.00700347
119 1 0.964381 0.209497 0.0816053
120 1 0.901824 0.253523 0.0959229
121 1 0.993016 0.307604 0.985686
122 1 0.0403279 0.341079 0.994894
123 1 0.055535 0.306156 0.050334
124 1 0.00903587 0.361779 0.0537881
125 1 0.096147 0.291656 -0.000202318
126 1 0.165228 0.354931 0.0323293
127 1 0.126499 0.300744 0.0613117
128 1 0.0921747 0.353666 0.0419163
129 1 0.201984 0.294674 0.991463
130 1 0.230415 0.352657 0.0141368
131 1 0.250848 0.311196 0.0586326
132 1 0.206934 0.371857 0.0808295
133 1 0.289674 0.33198 0.000591884
134 1 0.353673 0.353309 0.0197682
135 1 0.311918 0.297399 0.0880067
136 1 0.287474 0.366014 0.0529685
137 1 0.333083 0.276625 0.0320569
138 1 0.45627 0.298993 0.98789
139 1 0.43706 0.316275 0.0573767
140 1 0.387407 0.382288 0.0620659
141 1 0.461808 0.251176 0.0450472
142 1 0.555415 0.324203 0.00555413
143 1 0.57578 0.283004 0.0608769
144 1 0.4877 0.313356 0.10987
145 1 0.646817 0.254481 0.0126814
146 1 0.639846 0.319093 0.996429
147 1 0.654711 0.2903 0.0579455
148 1 0.608962 0.330439 0.0472009
149 1 0.691981 0.275311 0.972288
150 1 0.763314 0.337375 0.00657697
151 1 0.750283 0.302899 0.0716634
152 1 0.700927 0.321648 0.0207765
153 1 0.818642 0.2985 0.00897969
154 1 0.871115 0.335803 0.00536988
155 1 0.860074 0.28168 0.0587504
156 1 0.80661 0.324044 0.0618925
157 1 0.922472 0.303409 0.00590167
158 1 0.965602 0.361594 0.00313679
159 1 0.976838 0.291018 0.0525976
160 1 0.912731 0.362082 0.0394724
161 1 0.010566 0.40502 0.997046
162 1 0.0556901 0.459365 0.998091
163 1 0.0462763 0.409799 0.0559016
164 1 0.00215202 0.460556 0.0382471
165 1 0.0911177 0.408463 0.00404183
166 1 0.141078 0.449578 0.00738321
167 1 0.150802 0.411579 0.0555184
168 1 0.0965794 0.461268 0.0470215
169 1 0.193151 0.414373 0.00157665
170 1 0.259957 0.468787 0.986534
171 1 0.233994 0.432618 0.052461
172 1 0.185355 0.470372 0.0540419
173 1 0.281606 0.418203 0.0133969
174 1 0.346654 0.454774 0.998591
175 1 0.336311 0.411693 0.044287
176 1 0.299731 0.469707 0.0319335
177 1 0.397713 0.290671 0.00810404
178 1 0.429547 0.476837 0.992961
179 1 0.440222 0.382102 0.0338005
180 1 0.407506 0.44135 0.0463746
181 1 0.475102 0.359394 0.99045
182 1 0.549714 0.439996 0.987566
183 1 0.534917 0.384463 0.0208098
184 1 0.487412 0.422755 0.0274062
185 1 0.597009 0.371502 0.995967
186 1 0.642771 0.443832 0.00661371
187 1 0.658739 0.374866 0.0332824
188 1 0.590876 0.450755 0.0400828
189 1 0.712636 0.379887 0.986294
190 1 0.749463 0.428434 0.996626
191 1 0.750136 0.374133 0.0527132
192 1 0.692991 0.434554 0.041104
193 1 0.801696 0.390104 0.00907661
194 1 0.845827 0.442152 1.00146
195 1 0.850724 0.392326 0.041154
196 1 0.797365 0.438647 0.061726
197 1 0.899152 0.393363 0.985523
198 1 0.948401 0.448907 1.00039
199 1 0.946941 0.408288 0.0489328
200 1 0.890161 0.449258 0.0452198
201 1 1.00032 0.503956 0.998579
202 1 0.0383115 0.555329 0.988769
203 1 0.0469051 0.508056 0.0447022
204 1 0.982418 0.541142 0.0446536
205 1 0.112928 0.503832 0.995893
206 1 0.146315 0.559519 0.996533
207 1 0.139267 0.511378 0.0508641
208 1 0.103406 0.559135 0.0607507
209 1 0.192294 0.502925 0.00687858
210 1 0.247455 0.591058 0.012725
211 1 0.244754 0.524838 0.0343339
212 1 0.183954 0.559297 0.0500461
213 1 0.309615 0.504295 0.965667
214 1 0.364638 0.515438 0.998471
215 1 0.353028 0.478155 0.0551983
216 1 0.299282 0.55429 0.00606103
217 1 0.370447 0.470862 0.946133
218 1 0.453743 0.530545 0.00869051
219 1 0.467361 0.476917 0.0488713
220 1 0.402332 0.524506 0.047037
221 1 0.506905 0.489963 0.00497332
222 1 0.547468 0.535799 0.016903
223 1 0.539897 0.483994 0.0643516
224 1 0.49831 0.544932 0.052203
225 1 0.59399 0.488931 0.98974
226 1 0.647438 0.527653 0.995482
227 1 0.643748 0.489553 0.0545589
228 1 0.603216 0.536944 0.0572432
229 1 0.696605 0.489235 0.00516054
230 1 0.750691 0.526447 0.0104197
231 1 0.748293 0.474746 0.0514972
232 1 0.686554 0.539141 0.0582151
233 1 0.796217 0.484157 0.00956156
234 1 0.840547 0.533461 0.0119706
235 1 0.841685 0.484168 0.0495026
236 1 0.787195 0.528098 0.0607138
237 1 0.892649 0.493824 0.00385613
238 1 0.929249 0.545565 0.99609
239 1 0.943757 0.493996 0.0467146
240 1 0.885758 0.528178 0.0617258
241 1 0.978607 0.582499 0.994756
242 1 0.0259592 0.647409 0.992766
243 1 0.0356719 0.578897 0.0450129
244 1 0.980219 0.626651 0.0442933
245 1 0.0871678 0.600515 0.985756
246 1 0.193045 0.609499 0.99785
247 1 0.146262 0.623225 0.0695308
248 1 0.0772685 0.626597 0.0409905
249 1 0.192291 0.684961 0.00940721
250 1 0.24575 0.657724 0.015877
251 1 0.205066 0.616382 0.0591648
252 1 0.314965 0.690438 0.989116
253 1 0.30127 0.633732 0.0167491
254 1 0.417265 0.652827 0.0268271
255 1 0.366553 0.581204 0.0493966
256 1 0.354882 0.645227 0.0450955
257 1 0.415253 0.575966 0.00342201
258 1 0.451182 0.623062 0.986458
259 1 0.461937 0.593775 0.0545605
260 1 0.413588 0.691979 0.0731477
261 1 0.511994 0.594226 0.00770689
262 1 0.544401 0.648447 0.0390351
263 1 0.557753 0.591335 0.0611886
264 1 0.469343 0.667289 0.0512051
265 1 0.589723 0.578611 0.00557279
266 1 0.651931 0.640099 0.009625
267 1 0.644461 0.578607 0.0357021
268 1 0.611471 0.638647 0.0553476
269 1 0.700235 0.591263 0.0130007
270 1 0.755053 0.629883 0.0185348
271 1 0.736626 0.580507 0.0636808
272 1 0.691078 0.628964 0.0617362
273 1 0.792834 0.578621 0.0230281
274 1 0.824922 0.639421 0.0106719
275 1 0.847904 0.584063 0.0595869
276 1 0.787624 0.636371 0.0725669
277 1 0.878444 0.595524 0.00328655
278 1 0.926407 0.637537 0.986756
279 1 0.932425 0.585648 0.0537202
280 1 0.876464 0.640875 0.0560711
281 1 0.985611 0.694808 0.988792
282 1 0.0477173 0.740907 0.97919
283 1 0.0175382 0.681136 0.043817
284 1 0.96773 0.736278 0.042491
285 1 0.0745019 0.68982 0.0204883
286 1 0.194118 0.755949 0.00770099
287 1 0.134566 0.642146 1.00276
288 1 0.0456374 0.770941 0.0365948
289 1 0.192537 0.820191 0.026391
290 1 0.314065 0.756627 0.00283369
291 1 0.247789 0.74468 0.118705
292 1 0.22273 0.780878 0.0688067
293 1 0.352171 0.638904 0.980915
294 1 0.361599 0.736961 0.967818
295 1 0.374919 0.711579 0.0242627
296 1 0.308048 0.684596 0.0595136
297 1 0.399456 0.683338 0.968359
298 1 0.41194 0.758112 0.987084
299 1 0.441322 0.705738 0.0067278
300 1 0.361698 0.783505 0.0438915
301 1 0.49105 0.668748 0.993596
302 1 0.545655 0.712104 0.00510542
303 1 0.518479 0.687926 0.0869696
304 1 0.503997 0.785033 0.0837126
305 1 0.578034 0.718378 0.951836
306 1 0.619814 0.704326 0.00911444
307 1 0.667472 0.692531 0.0551972
308 1 0.553891 0.755958 0.0576329
309 1 0.704268 0.683193 0.00987449
310 1 0.745608 0.728961 0.0190242
311 1 0.730748 0.679522 0.0794543
312 1 0.676123 0.740442 0.0136078
313 1 0.78781 0.68154 0.0321218
314 1 0.835268 0.746215 0.977394
315 1 0.83954 0.686294 0.078309
316 1 0.821765 0.733624 0.0479192
317 1 0.884924 0.701341 0.989684
318 1 0.934118 0.74236 0.989583
319 1 0.928818 0.682354 0.0355075
320 1 0.889976 0.721688 0.0509041
321 1 0.985096 0.780229 0.99549
322 1 0.0340711 0.817811 0.00197198
323 1 0.0418577 0.835121 0.0625427
324 1 0.980039 0.829628 0.0426373
325 1 0.0879817 0.800141 0.965099
326 1 0.136346 0.84703 0.944933
327 1 0.138611 0.749532 0.0463362
328 1 0.1436 0.8709 0.00843508
329 1 0.133846 0.804953 0.0205772
330 1 0.197176 0.903001 0.00404166
331 1 0.256312 0.782256 0.0116006
332 1 0.17171 0.930011 0.0563881
333 1 0.266328 0.885484 0.0909843
334 1 0.308556 0.821249 0.0250732
335 1 0.345173 0.737349 0.0829735
336 1 0.264303 0.857157 0.0168696
337 1 0.361261 0.820724 0.987881
338 1 0.421341 0.80842 0.0203748
339 1 0.4148 0.747146 0.0528771
340 1 0.327502 0.82229 0.0880702
341 1 0.492262 0.727284 0.0427512
342 1 0.477428 0.844169 0.0543739
343 1 0.523874 0.862751 0.108365
344 1 0.476691 0.782499 0.0178481
345 1 0.622912 0.769329 0.0265976
346 1 0.600112 0.882208 0.00434109
347 1 0.606764 0.789178 0.0923885
348 1 0.57941 0.854796 0.0679319
349 1 0.623848 0.759523 0.961282
350 1 0.659205 0.836337 0.00875956
351 1 0.765869 0.779731 0.0647044
352 1 0.669725 0.821977 0.0692257
353 1 0.779817 0.784291 0.979995
354 1 0.818676 0.852772 0.982218
355 1 0.845912 0.785245 0.0277955
356 1 0.704947 0.795668 0.0277547
357 1 0.886855 0.786865 0.976792
358 1 0.933101 0.830865 0.993627
359 1 0.928826 0.789784 0.0444411
360 1 0.884688 0.839631 0.0423951
361 1 0.0127216 0.885089 0.0359729
362 1 0.00364231 0.954317 0.956272
363 1 0.0747103 0.872243 0.0144845
364 1 0.992807 0.909331 0.0980966
365 1 0.0498804 0.933822 0.025012
366 1 0.154346 0.951428 0.972843
367 1 0.116129 0.9215 0.0246558
368 1 0.0873839 0.0171141 0.121954
369 1 0.211234 0.960332 0.962797
370 1 0.298013 0.983095 0.0553833
371 1 0.154869 0.932564 0.139902
372 1 0.17498 0.984408 0.0178755
373 1 0.315724 0.881575 0.979649
374 1 0.280378 0.919943 0.0243995
375 1 0.314434 0.871776 0.0541216
376 1 0.357518 0.948387 0.0409744
377 1 0.36282 0.884484 0.0171973
378 1 0.440302 0.948767 0.00549927
379 1 0.375621 0.785152 0.10487
380 1 0.433837 0.891638 0.0388014
381 1 0.492941 0.935022 0.0255981
382 1 0.476828 0.908136 0.0793348
383 1 0.544161 0.936083 0.0938343
384 1 0.402393 0.87392 0.164709
385 1 0.526817 0.883494 0.040076
386 1 0.675451 0.980278 0.00271168
387 1 0.60872 0.928597 0.0720229
388 1 0.615482 0.989343 0.021622
389 1 0.662288 0.918558 0.0302097
390 1 0.732096 0.934113 0.0208781
391 1 0.715333 0.868344 0.044232
392 1 0.657741 0.932227 0.132996
393 1 0.751948 0.962227 0.950895
394 1 0.851689 0.915146 0.966265
395 1 0.763284 0.826472 0.0203866
396 1 0.803734 0.967063 0.0485601
397 1 0.90616 0.893821 0.0132456
398 1 0.978401 0.905245 0.989855
399 1 0.950145 0.879933 0.0596847
400 1 0.786713 0.894881 0.0296164
401 1 0.986501 0.95953 0.0265397
402 1 0.0627102 0.0619306 0.149892
403 1 0.022621 0.00065425 0.108719
404 1 0.00066018 0.0549321 0.142355
405 1 0.105254 0.961704 0.113307
406 1 0.171541 0.0519123 0.111212
407 1 0.153298 0.995208 0.143669
408 1 0.123976 0.0902611 0.133708
409 1 0.199731 0.037582 0.0526543
410 1 0.198087 0.102458 0.099774
411 1 0.215438 0.983491 0.142196
412 1 0.276685 0.973086 0.122224
413 1 0.38404 0.97946 0.101494
414 1 0.314383 0.0329029 0.0869838
415 1 0.264325 0.0343793 0.150096
416 1 0.249148 0.101351 0.142034
417 1 0.358784 0.896538 0.0940511
418 1 0.413081 0.987389 0.159627
419 1 0.508648 0.982234 0.253655
420 1 0.431349 0.0530462 0.162939
421 1 0.442433 0.931872 0.182045
422 1 0.597827 0.956257 0.143529
423 1 0.610637 0.933382 0.197566
424 1 0.49061 0.971651 0.187068
425 1 0.478563 0.951555 0.128594
426 1 0.584592 0.0165654 0.136864
427 1 0.680616 1.00033 0.151637
428 1 0.550726 0.130496 0.162396
429 1 0.732334 0.128438 0.123777
430 1 0.794319 0.0595213 0.0633775
431 1 0.719883 0.939162 0.14398
432 1 0.617946 0.0729331 0.134553
433 1 0.725757 0.991807 0.108301
434 1 0.800097 0.0294329 0.125808
435 1 0.857792 0.988653 0.128822
436 1 0.762027 0.0809495 0.173285
437 1 0.917907 0.970572 0.130809
438 1 0.937631 0.0480068 0.12965
439 1 0.971096 0.964105 0.0841854
440 1 0.92453 0.0279418 0.188763
441 1 0.0266852 0.0826859 0.085847
442 1 0.0436529 0.195793 0.0224023
443 1 0.0233219 0.179966 0.0803116
444 1 0.978763 0.190461 0.17222
445 1 0.0866627 0.100836 0.0837804
446 1 0.109336 0.16571 0.156484
447 1 0.0949739 0.118678 0.199343
448 1 0.0609571 0.123241 0.141816
449 1 0.173525 0.130164 0.154939
450 1 0.221838 0.162139 0.127669
451 1 0.196773 0.0621361 0.178163
452 1 0.201994 0.116394 0.209009
453 1 0.284794 0.13904 0.10955
454 1 0.338492 0.176676 0.109231
455 1 0.300749 0.100395 0.202923
456 1 0.278094 0.246279 0.204365
457 1 0.324117 0.0694895 0.142386
458 1 0.386901 0.107237 0.140635
459 1 0.491274 0.110298 0.125976
460 1 0.323392 0.145415 0.16226
461 1 0.445142 0.00718674 0.103681
462 1 0.475194 0.120265 0.243349
463 1 0.4403 0.00964944 0.214836
464 1 0.49606 0.157836 0.171422
465 1 0.581062 0.992314 0.0785573
466 1 0.625352 0.18304 0.140663
467 1 0.548753 0.0721344 0.149716
468 1 0.581845 0.133437 0.223241
469 1 0.674344 0.0467483 0.0942677
470 1 0.703357 0.173491 0.0473519
471 1 0.820386 0.0944597 0.206916
472 1 0.666583 0.137988 0.140663
473 1 0.696608 0.109837 0.0690789
474 1 0.828447 0.139918 0.0833663
475 1 0.845061 0.0757582 0.153451
476 1 0.789305 0.100384 0.116176
477 1 0.874839 0.0423186 0.116071
478 1 0.988739 0.150106 0.121453
479 1 0.943508 0.106782 0.146653
480 1 0.888857 0.11156 0.0965694
481 1 0.00431351 0.224547 0.127814
482 1 0.0616952 0.243926 0.137934
483 1 0.0478389 0.189477 0.1521
484 1 0.970168 0.257222 0.172924
485 1 0.0858867 0.187753 0.104709
486 1 0.149776 0.263755 0.112485
487 1 0.0989099 0.216767 0.190798
488 1 0.0889384 0.280559 0.191699
489 1 0.163247 0.193102 0.131654
490 1 0.217104 0.245123 0.136678
491 1 0.22394 0.198732 0.181085
492 1 0.154858 0.253318 0.173052
493 1 0.275199 0.200393 0.136956
494 1 0.332502 0.237993 0.0870291
495 1 0.345682 0.220068 0.177541
496 1 0.301138 0.263894 0.14708
497 1 0.387884 0.216586 0.0531496
498 1 0.462701 0.187111 0.0801622
499 1 0.390268 0.166704 0.172483
500 1 0.40979 0.260062 0.0927509
501 1 0.445486 0.176315 0.138753
502 1 0.524817 0.257447 0.0953001
503 1 0.522484 0.181106 0.118393
504 1 0.443691 0.225953 0.173985
505 1 0.550747 0.101989 0.0986112
506 1 0.670002 0.263249 0.114277
507 1 0.614964 0.185013 0.227725
508 1 0.594303 0.224049 0.103505
509 1 0.735407 0.174547 0.162696
510 1 0.603421 0.218148 0.0267175
511 1 0.692047 0.187264 0.112871
512 1 0.66058 0.217516 0.0584554
513 1 0.762313 0.17847 0.107508
514 1 0.823718 0.202505 0.108634
515 1 0.879372 0.181445 0.134249
516 1 0.818226 0.268238 0.175734
517 1 0.930326 0.158793 0.0939835
518 1 0.961575 0.268795 0.1083
519 1 0.927039 0.212995 0.135779
520 1 0.870665 0.241626 0.144255
521 1 0.0224333 0.289328 0.122784
522 1 0.0510815 0.350602 0.0971499
523 1 -0.000881342 0.30727 0.199969
524 1 0.00622159 0.353844 0.150165
525 1 0.0894307 0.29913 0.127989
526 1 0.143461 0.352937 0.0905268
527 1 0.142405 0.316629 0.157154
528 1 0.0950254 0.359074 0.158791
529 1 0.200767 0.298415 0.114947
530 1 0.266034 0.347041 0.106681
531 1 0.251815 0.297714 0.160428
532 1 0.20105 0.367579 0.148357
533 1 0.260118 0.255503 0.0930094
534 1 0.33708 0.368732 0.094132
535 1 0.361517 0.289909 0.135543
536 1 0.309822 0.326004 0.144448
537 1 0.376198 0.319542 0.0783734
538 1 0.436709 0.362745 0.0965278
539 1 0.423365 0.314272 0.131249
540 1 0.368625 0.355476 0.141713
541 1 0.470767 0.241368 0.118688
542 1 0.54476 0.333081 0.093157
543 1 0.537274 0.287808 0.153441
544 1 0.479068 0.37438 0.135617
545 1 0.599714 0.282952 0.124338
546 1 0.637794 0.356279 0.102964
547 1 0.654332 0.315689 0.148018
548 1 0.588502 0.336514 0.154259
549 1 0.695253 0.315378 0.0984852
550 1 0.760461 0.342715 0.12624
551 1 0.753978 0.277972 0.155333
552 1 0.699658 0.356526 0.146203
553 1 0.803188 0.295183 0.118359
554 1 0.854598 0.344255 0.10241
555 1 0.884811 0.301255 0.146673
556 1 0.798201 0.333254 0.175365
557 1 0.913869 0.318558 0.086508
558 1 0.958326 0.364435 0.105563
559 1 0.95201 0.319186 0.155631
560 1 0.90575 0.363566 0.142473
561 1 0.994765 0.420327 0.0986987
562 1 0.044028 0.458754 0.0919247
563 1 0.0513782 0.406028 0.14238
564 1 0.98865 0.458843 0.142081
565 1 0.0957993 0.410295 0.0947627
566 1 0.138894 0.459814 0.103659
567 1 0.1395 0.399956 0.141098
568 1 0.0899762 0.465222 0.139523
569 1 0.194559 0.426112 0.112813
570 1 0.242636 0.470178 0.0980839
571 1 0.247324 0.408593 0.146004
572 1 0.193705 0.479263 0.14267
573 1 0.286037 0.409434 0.0957486
574 1 0.327651 0.451462 0.104096
575 1 0.319132 0.404062 0.151739
576 1 0.290249 0.463688 0.157155
577 1 0.372876 0.411208 0.116506
578 1 0.4648 0.426849 0.0925595
579 1 0.427497 0.424943 0.145638
580 1 0.367116 0.463547 0.175805
581 1 0.494416 0.37836 0.0707763
582 1 0.542375 0.420226 0.0827439
583 1 0.548929 0.381438 0.129721
584 1 0.509461 0.43317 0.135978
585 1 0.587157 0.38198 0.0771584
586 1 0.626139 0.433495 0.0908715
587 1 0.623869 0.390446 0.148289
588 1 0.579767 0.434265 0.14012
589 1 0.683852 0.402656 0.0969438
590 1 0.735381 0.435794 0.0991624
591 1 0.743214 0.396612 0.149989
592 1 0.688766 0.442521 0.155034
593 1 0.805729 0.378013 0.124543
594 1 0.848555 0.435813 0.0910563
595 1 0.85782 0.405946 0.142115
596 1 0.800311 0.438269 0.148213
597 1 0.896894 0.400042 0.0903617
598 1 0.946009 0.453354 0.092601
599 1 0.958386 0.407567 0.153767
600 1 0.910637 0.442239 0.153704
601 1 0.996474 0.497192 0.0892528
602 1 0.0420441 0.549892 0.101874
603 1 0.0373601 0.501331 0.141663
604 1 0.987606 0.549131 0.142268
605 1 0.0984387 0.509742 0.0960021
606 1 0.145335 0.559274 0.104799
607 1 0.141727 0.502202 0.155098
608 1 0.0899804 0.559834 0.143279
609 1 0.195518 0.526258 0.0965559
610 1 0.252934 0.570956 0.115917
611 1 0.249304 0.511482 0.150736
612 1 0.195735 0.549113 0.15636
613 1 0.294904 0.511525 0.0800219
614 1 0.370706 0.556288 0.111715
615 1 0.345497 0.508267 0.128706
616 1 0.320439 0.587194 0.140831
617 1 0.407609 0.463273 0.101951
618 1 0.440078 0.54181 0.0994709
619 1 0.442827 0.497888 0.157744
620 1 0.403847 0.54797 0.162387
621 1 0.48886 0.486232 0.108908
622 1 0.550954 0.549536 0.107227
623 1 0.54199 0.498683 0.160488
624 1 0.496101 0.544024 0.140902
625 1 0.593537 0.487908 0.107863
626 1 0.647132 0.531046 0.107222
627 1 0.647343 0.487388 0.151868
628 1 0.595169 0.539856 0.150005
629 1 0.689609 0.476112 0.0988061
630 1 0.740489 0.534328 0.103737
631 1 0.741176 0.483103 0.142414
632 1 0.697546 0.532006 0.154543
633 1 0.79231 0.482463 0.105208
634 1 0.836411 0.536296 0.103103
635 1 0.843021 0.478852 0.14801
636 1 0.794228 0.532481 0.149923
637 1 0.8871 0.491468 0.111006
638 1 0.940223 0.54273 0.10158
639 1 0.942081 0.498198 0.146497
640 1 0.894003 0.542366 0.150886
641 1 0.985877 0.592775 0.100251
642 1 0.0321065 0.634168 0.0906791
643 1 0.0385696 0.598317 0.141583
644 1 0.988404 0.647884 0.135652
645 1 0.0899207 0.60781 0.0934545
646 1 0.18949 0.658415 0.109822
647 1 0.144927 0.603829 0.153247
648 1 0.0878852 0.649998 0.140169
649 1 0.19831 0.592424 0.117033
650 1 0.279059 0.627078 0.0804009
651 1 0.261775 0.627685 0.142254
652 1 0.23696 0.698477 0.0726637
653 1 0.307595 0.576142 0.0707849
654 1 0.347647 0.620504 0.102674
655 1 0.37601 0.60717 0.162481
656 1 0.318354 0.642822 0.157873
657 1 0.408396 0.610176 0.0954367
658 1 0.459199 0.675067 0.111233
659 1 0.452745 0.601323 0.139804
660 1 0.446663 0.647851 0.197179
661 1 0.504323 0.593992 0.10005
662 1 0.558843 0.631405 0.108982
663 1 0.544218 0.587643 0.155543
664 1 0.506257 0.647456 0.15207
665 1 0.60174 0.585898 0.105612
666 1 0.650276 0.631769 0.107972
667 1 0.647293 0.588222 0.15449
668 1 0.605773 0.632358 0.152286
669 1 0.691387 0.57737 0.109062
670 1 0.741174 0.62732 0.111527
671 1 0.744399 0.578184 0.149692
672 1 0.702311 0.624122 0.15662
673 1 0.788252 0.580822 0.104192
674 1 0.84202 0.633022 0.108052
675 1 0.841004 0.576791 0.148682
676 1 0.790858 0.61341 0.1528
677 1 0.885443 0.582586 0.106739
678 1 0.94538 0.642376 0.0943211
679 1 0.942208 0.595534 0.147783
680 1 0.898608 0.636537 0.139188
681 1 0.974174 0.695072 0.0903587
682 1 0.0373389 0.721745 0.088291
683 1 0.0410512 0.687539 0.138521
684 1 0.998025 0.741673 0.131125
685 1 0.082065 0.673341 0.0879289
686 1 0.139154 0.682088 0.049402
687 1 0.145584 0.680147 0.154576
688 1 0.119316 0.730854 0.120181
689 1 0.247054 0.722219 0.00802434
690 1 0.294322 0.795223 0.132948
691 1 0.183104 0.733633 0.0953291
692 1 0.162725 0.805021 0.0798414
693 1 0.346061 0.686566 0.111637
694 1 0.397608 0.747502 0.18427
695 1 0.405654 0.658446 0.14215
696 1 0.363331 0.684456 0.174212
697 1 0.410275 0.731967 0.117845
698 1 0.407178 0.803655 0.158049
699 1 0.439704 0.709284 0.168293
700 1 0.430054 0.753609 0.265132
701 1 0.543614 0.73705 0.118475
702 1 0.535131 0.813898 0.0259431
703 1 0.560644 0.682722 0.148232
704 1 0.473569 0.737785 0.106405
705 1 0.593584 0.707727 0.0815607
706 1 0.645918 0.7447 0.0811563
707 1 0.654737 0.668823 0.1716
708 1 0.607489 0.728738 0.140238
709 1 0.6878 0.704052 0.123512
710 1 0.787191 0.728729 0.100474
711 1 0.735668 0.680254 0.163881
712 1 0.740741 0.74606 0.150105
713 1 0.783054 0.671476 0.125555
714 1 0.862353 0.739883 0.0998125
715 1 0.842668 0.692715 0.144307
716 1 0.802286 0.737457 0.164583
717 1 0.898703 0.686578 0.101832
718 1 0.933722 0.74273 0.0955534
719 1 0.943014 0.702146 0.142941
720 1 0.891661 0.736142 0.155275
721 1 0.980501 0.785183 0.0869002
722 1 0.0534257 0.897256 0.0834003
723 1 0.0735106 0.757882 0.153181
724 1 0.0395045 0.784159 0.110116
725 1 0.104063 0.784889 0.0886807
726 1 0.127711 0.895246 0.0930289
727 1 0.104433 0.803083 0.187939
728 1 0.0781591 0.827741 0.132409
729 1 0.10816 0.845119 0.0625892
730 1 0.200397 0.862018 0.0700743
731 1 0.191858 0.759619 0.180575
732 1 0.215366 0.794655 0.133504
733 1 0.290159 0.755932 0.0643985
734 1 0.26611 0.816124 0.0866693
735 1 0.304417 0.718106 0.201198
736 1 0.304699 0.806511 0.19353
737 1 0.340678 0.762406 0.162809
738 1 0.480575 0.888098 0.151405
739 1 0.422641 0.862849 0.105304
740 1 0.270385 0.774198 0.239181
741 1 0.443079 0.789518 0.0830456
742 1 0.535615 0.847289 0.17095
743 1 0.476809 0.82653 0.133135
744 1 0.525563 0.914882 0.26592
745 1 0.57702 0.826815 0.124242
746 1 0.651527 0.881711 0.0828068
747 1 0.635752 0.837677 0.129496
748 1 0.528229 0.783522 0.15536
749 1 0.715471 0.754581 0.0910119
750 1 0.742677 0.849653 0.0942019
751 1 0.772912 0.794539 0.136685
752 1 0.707125 0.795936 0.135748
753 1 0.830234 0.795444 0.0951375
754 1 0.820555 0.840527 0.0428665
755 1 0.849153 0.778065 0.181013
756 1 0.820066 0.836899 0.143219
757 1 0.896065 0.81205 0.103385
758 1 0.948262 0.845381 0.129245
759 1 0.938158 0.784086 0.146141
760 1 0.886016 0.828393 0.163675
761 1 0.00866007 0.849375 0.113401
762 1 0.0558047 0.958555 0.0760138
763 1 0.0561543 0.938831 0.219509
764 1 0.0279202 0.925425 0.145541
765 1 0.0885029 0.909176 0.142953
766 1 0.174961 0.983937 0.0853878
767 1 0.163737 0.0167307 0.205662
768 1 0.0523069 0.980866 0.168697
769 1 0.250505 0.914727 0.157416
770 1 0.231699 0.965378 0.0332852
771 1 0.244302 0.85113 0.144045
772 1 0.136726 0.893215 0.182204
773 1 0.312657 0.884308 0.129046
774 1 0.306679 0.935194 0.0883262
775 1 0.268207 0.870117 0.202336
776 1 0.314308 0.953881 0.176214
777 1 0.365792 0.930697 0.157977
778 1 0.433572 0.9615 0.0678868
779 1 0.3526 0.836566 0.151883
780 1 0.375699 0.841649 0.0579507
781 1 0.427955 0.921237 0.117328
782 1 0.541607 0.913519 0.159859
783 1 0.553891 0.886336 0.223618
784 1 0.547551 0.95338 0.216626
785 1 0.594902 0.786145 0.166783
786 1 0.589962 0.892735 0.125756
787 1 0.598906 0.857011 0.184252
788 1 0.534536 0.981937 0.134805
789 1 0.690516 0.865294 0.129701
790 1 0.751838 0.912002 0.0905995
791 1 0.767086 0.888834 0.150026
792 1 0.658144 0.876375 0.21756
793 1 0.801845 0.879459 0.0993315
794 1 0.697502 0.943286 0.0844025
795 1 0.871026 0.888106 0.172975
796 1 0.780502 0.949577 0.126724
797 1 0.860103 0.863436 0.101668
798 1 0.930965 0.939902 0.0448864
799 1 0.917326 0.900544 0.10962
800 1 0.862161 0.923747 0.123122
801 1 0.977027 1.0015 0.154684
802 1 0.014671 0.0285452 0.194534
803 1 0.00130606 0.990732 0.246457
804 1 0.00772586 0.061922 0.259783
805 1 0.995095 0.94005 0.197162
806 1 0.105559 0.0233163 0.188128
807 1 0.15895 0.989896 0.282716
808 1 0.0579776 0.026167 0.283917
809 1 0.201282 0.963233 0.209579
810 1 0.268922 0.00798644 0.211329
811 1 0.248405 0.980066 0.262319
812 1 0.147523 0.0785773 0.207529
813 1 0.322925 0.0447364 0.215436
814 1 0.286612 0.0488057 0.270759
815 1 0.469647 0.0552281 0.328068
816 1 0.364172 0.0475008 0.270845
817 1 0.426853 0.0653957 0.240077
818 1 0.444302 0.952682 0.249523
819 1 0.556478 0.034272 0.257088
820 1 0.398127 0.0951701 0.291427
821 1 0.599531 0.992045 0.243876
822 1 0.529698 0.0221289 0.198981
823 1 0.630967 0.98317 0.296527
824 1 0.51885 0.0248725 0.312861
825 1 0.62493 0.992196 0.186271
826 1 0.69802 0.0749693 0.142986
827 1 0.677658 0.00720428 0.227257
828 1 0.650204 0.055472 0.190339
829 1 0.70786 0.0705044 0.215339
830 1 0.789147 0.03391 0.204366
831 1 0.73969 0.993816 0.177811
832 1 0.735458 0.0757335 0.322137
833 1 0.814128 0.979411 0.172543
834 1 0.890999 0.0163965 0.246292
835 1 0.828725 0.990533 0.230606
836 1 0.76626 0.084136 0.252059
837 1 0.95054 0.905267 0.168731
838 1 0.965951 0.0714858 0.191235
839 1 0.941001 0.969188 0.209765
840 1 0.827077 0.0464255 0.250007
841 1 0.00488283 0.118507 0.187232
842 1 0.0540655 0.181446 0.212756
843 1 0.0472448 0.135737 0.258621
844 1 0.979982 0.195786 0.236764
845 1 0.0447183 0.0762014 0.208293
846 1 0.15672 0.171608 0.200294
847 1 0.0911648 0.0896633 0.254835
848 1 0.105005 0.054021 0.324293
849 1 0.20164 0.0411933 0.249338
850 1 0.260505 0.145246 0.186838
851 1 0.215183 0.0336387 0.314522
852 1 0.153084 0.113456 0.255976
853 1 0.251068 0.0735321 0.223532
854 1 0.369171 0.0878829 0.193598
855 1 0.341643 0.104871 0.247051
856 1 0.272064 0.12815 0.265806
857 1 0.378453 0.0254316 0.190765
858 1 0.435415 0.114369 0.178571
859 1 0.461111 0.00118112 0.288173
860 1 0.40505 0.143115 0.246981
861 1 0.497307 0.0838828 0.185288
862 1 0.527393 0.139469 0.275272
863 1 0.480439 0.0571075 0.264903
864 1 0.444546 0.167516 0.20584
865 1 0.582105 0.0866706 0.274172
866 1 0.621644 0.125545 0.177848
867 1 0.64024 0.113203 0.251475
868 1 0.624893 0.244871 0.233791
869 1 0.705774 0.131839 0.188393
870 1 0.789705 0.195832 0.231016
871 1 0.762223 0.137149 0.213843
872 1 0.705191 0.0962654 0.269257
873 1 0.858204 0.0325911 0.187861
874 1 0.871189 0.137624 0.168937
875 1 0.838918 0.107236 0.271364
876 1 0.836787 0.148747 0.22604
877 1 0.889013 0.0744355 0.223218
878 1 0.93918 0.150668 0.200971
879 1 0.961694 0.109369 0.245157
880 1 0.896847 0.136838 0.243491
881 1 0.997455 0.251042 0.241851
882 1 0.0288816 0.243267 0.188316
883 1 0.111888 0.130893 0.296296
884 1 0.997181 0.229435 0.296726
885 1 0.110244 0.156669 0.240948
886 1 0.063604 0.238019 0.250916
887 1 0.149024 0.181472 0.29177
888 1 0.08066 0.189432 0.284621
889 1 0.179881 0.229227 0.268107
890 1 0.212703 0.256556 0.209705
891 1 0.250136 0.194929 0.241082
892 1 0.189901 0.292952 0.258252
893 1 0.34283 0.165702 0.222822