ITEM: TIMESTEP
33100
ITEM: NUMBER OF ATOMS
4000
ITEM: BOX BOUNDS pp pp pp
0.0000000000000000e+00 1.6795961913825074e+01
0.0000000000000000e+00 1.6795961913825074e+01
0.0000000000000000e+00 1.6795961913825074e+01
ITEM: ATOMS id type xs ys zs
1 1 0.00254866 0.0631662 0.0648863
2 1 0.0573021 0.114965 0.802768
3 1 0.00342392 0.925609 0.946831
4 1 0.0385157 0.117858 0.12232
5 1 0.114434 0.0301662 0.124842
6 1 0.155113 0.129989 0.122185
7 1 0.15163 0.0830506 0.0141924
8 1 0.0154595 0.955712 0.147187
9 1 0.392093 0.932112 0.0565381
10 1 0.228471 0.0438848 0.0115153
11 1 0.0546997 0.0224513 0.159495
12 1 0.315986 0.12898 0.896571
13 1 0.240897 0.238487 0.11934
14 1 0.302441 0.239453 0.960354
15 1 0.392286 0.206674 0.0879839
16 1 0.357357 0.954076 0.182324
17 1 0.569306 0.909442 0.83904
18 1 0.427548 0.863878 0.949023
19 1 0.427674 0.889693 0.0933578
20 1 0.386971 0.137532 0.11085
21 1 0.448872 0.826613 0.0678396
22 1 0.51905 0.11177 0.131907
23 1 0.551339 0.987005 0.0512611
24 1 0.636903 0.0207811 0.793907
25 1 0.596424 0.95654 0.909733
26 1 0.648137 0.0202264 0.0597252
27 1 0.668467 0.00389284 0.208335
28 1 0.718531 0.981284 0.00217464
29 1 0.67719 0.0684053 0.915328
30 1 0.7581 0.154409 0.786586
31 1 0.827092 0.130086 0.0627875
32 1 0.731971 0.037935 0.102959
33 1 0.831508 0.995206 0.94066
34 1 0.603352 0.180627 0.817389
35 1 0.685721 0.981662 0.107852
36 1 0.737194 0.13091 0.84458
37 1 0.778772 0.102597 0.8846
38 1 0.73936 0.0495842 0.945467
39 1 0.00882688 0.0440715 0.996098
40 1 0.846279 0.85437 0.270475
41 1 0.0126325 0.166159 0.904676
42 1 0.129097 0.0139134 0.927771
43 1 0.988147 0.201175 0.218502
44 1 0.0403449 0.0143453 0.221702
45 1 0.155904 0.00443913 0.0824985
46 1 0.224911 0.234088 0.0556203
47 1 0.339343 0.15417 0.175866
48 1 0.179437 0.23908 0.0185858
49 1 0.0431524 0.939553 0.895735
50 1 0.325977 0.17875 0.117663
51 1 0.318797 0.0198626 0.0965197
52 1 0.003819 0.178175 0.115038
53 1 0.243901 0.15778 0.0281781
54 1 0.438613 0.10873 0.948579
55 1 0.466416 0.0673366 0.117029
56 1 0.297306 0.132506 0.979602
57 1 0.44231 0.0152398 0.102512
58 1 0.593342 0.135697 0.930454
59 1 0.295854 0.134028 0.0580403
60 1 0.476384 0.162951 0.0453372
61 1 0.498773 0.288449 0.907202
62 1 0.533277 0.146781 0.0264164
63 1 0.710688 0.02032 0.0491427
64 1 0.459727 0.955958 0.840064
65 1 0.645627 0.969309 0.873969
66 1 0.542516 0.153936 0.961925
67 1 0.458425 0.943524 0.0599082
68 1 0.326561 0.0381675 0.165647
69 1 0.457827 0.10753 0.0223929
70 1 0.795926 0.259066 0.900483
71 1 0.748948 0.16994 0.982438
72 1 0.543133 0.150613 0.89635
73 1 0.77197 0.131019 0.0267884
74 1 0.75024 0.24502 0.835967
75 1 0.787483 0.199769 0.937426
76 1 0.651874 0.200256 0.115909
77 1 0.745778 0.134332 0.157641
78 1 0.73636 0.105803 0.0996183
79 1 -0.000619526 0.163025 0.00742053
80 1 0.739697 0.18209 0.0464486
81 1 0.130483 0.18843 0.0401931
82 1 0.0921634 0.102567 0.952076
83 1 0.919373 0.13354 0.0999871
84 1 0.0571107 0.25301 0.98724
85 1 0.837309 0.169704 0.852918
86 1 0.258259 0.325107 0.9933
87 1 0.30643 0.301925 0.937399
88 1 0.124294 0.147884 0.982284
89 1 0.13732 0.212888 0.93773
90 1 0.173094 0.189132 0.984562
91 1 0.147228 0.17031 0.245422
92 1 0.230818 0.154712 0.952586
93 1 0.285043 0.238244 0.838702
94 1 0.349329 0.328306 0.881613
95 1 0.506456 0.108407 0.0686047
96 1 0.327025 0.33372 0.142462
97 1 0.290573 0.17976 0.940038
98 1 0.525007 0.0591166 0.0153429
99 1 0.367617 0.218038 0.191823
100 1 0.545279 0.305765 0.954055
101 1 0.439378 0.285021 0.0137287
102 1 0.445631 0.229717 0.811998
103 1 0.66883 0.262723 0.939042
104 1 0.62853 0.372898 0.02582
105 1 0.352517 0.104203 0.0744469
106 1 0.580569 0.104221 0.791351
107 1 0.716196 0.953618 0.0659904
108 1 0.533318 0.182436 0.0770993
109 1 0.828671 0.899987 0.135527
110 1 0.819908 0.445251 0.0920832
111 1 0.71992 0.24041 0.0154958
112 1 0.759599 0.293712 0.00731119
113 1 0.887945 0.183688 0.964692
114 1 0.602504 0.279943 0.0406155
115 1 0.888699 0.316364 0.09683
116 1 0.672253 0.263889 0.0734909
117 1 0.866367 0.0934394 0.00348055
118 1 0.822545 0.135574 0.915487
119 1 0.923208 0.132572 0.219705
120 1 0.824293 0.143182 0.995387
121 1 0.0164197 0.435419 0.971177
122 1 0.206878 0.400545 0.939795
123 1 0.967103 0.176799 0.958124
124 1 0.12812 0.418249 0.816765
125 1 0.11295 0.184179 0.860854
126 1 0.220864 0.274884 0.889381
127 1 0.233632 0.351314 0.894266
128 1 0.165075 0.351108 0.91606
129 1 0.432275 0.28984 0.946479
130 1 0.381164 0.451218 0.894102
131 1 0.225844 0.13056 0.865853
132 1 0.315015 0.404033 0.988971
133 1 0.346171 0.241397 0.127375
134 1 0.373222 0.457017 0.993207
135 1 0.3077 0.444695 0.0457351
136 1 0.413392 0.299185 0.063542
137 1 0.362629 0.341971 0.0362019
138 1 0.487513 0.256156 0.0477416
139 1 0.51899 0.324189 0.134636
140 1 0.397746 0.34765 0.10128
141 1 0.490495 0.321275 0.0168088
142 1 0.600634 0.376188 0.88386
143 1 0.605212 0.263684 0.950854
144 1 0.594021 0.178069 0.244741
145 1 0.865477 0.242043 0.932325
146 1 0.716417 0.322455 0.0491888
147 1 0.637174 0.388419 0.108946
148 1 0.533805 0.353469 0.991094
149 1 0.716877 0.299817 0.925253
150 1 0.718195 0.361188 0.946166
151 1 0.779176 0.230068 0.996303
152 1 0.685179 0.384704 0.992409
153 1 0.832689 0.278774 0.984197
154 1 0.887089 0.297056 0.97159
155 1 0.940824 0.327243 0.972812
156 1 0.732455 0.302425 0.858818
157 1 0.0476106 0.48079 0.995378
158 1 0.066171 0.39131 0.961461
159 1 0.0301818 0.228024 0.0652629
160 1 0.824356 0.414889 0.954327
161 1 0.944332 0.389868 0.0868521
162 1 0.127524 0.391348 0.115214
163 1 0.0144113 0.523996 0.959319
164 1 0.0818312 0.390052 0.161101
165 1 0.0743024 0.409284 0.853322
166 1 0.110131 0.461928 0.871779
167 1 0.131529 0.322183 0.0507553
168 1 0.0757693 0.495789 0.921364
169 1 0.158423 0.441913 0.95445
170 1 0.0955546 0.356339 0.00296322
171 1 0.295948 0.206708 0.0257071
172 1 0.0925096 0.525734 0.140864
173 1 0.207929 0.287831 0.00208992
174 1 0.234407 0.471997 0.899863
175 1 0.261708 0.448904 0.960728
176 1 0.106329 0.347307 0.935915
177 1 0.339097 0.363825 0.937603
178 1 0.54548 0.552947 0.0897175
179 1 0.490899 0.382147 0.0263771
180 1 0.349151 0.506901 0.0505766
181 1 0.524208 0.466294 0.0157671
182 1 0.654218 0.314885 0.0348559
183 1 0.546284 0.407925 0.0249437
184 1 0.366772 0.463536 0.0964705
185 1 0.443325 0.418132 0.00531326
186 1 0.630403 0.497121 0.0131735
187 1 0.5887 0.376369 0.973811
188 1 0.488581 0.387024 0.963121
189 1 0.584204 0.120927 0.853356
190 1 0.741136 0.382617 0.0273652
191 1 0.694774 0.465133 0.0752071
192 1 0.691482 0.507828 0.122721
193 1 0.77796 0.306248 0.944762
194 1 0.900253 0.383617 0.967271
195 1 0.815879 0.481997 0.18005
196 1 0.767169 0.426313 0.993235
197 1 0.84163 0.515672 0.122507
198 1 0.0817118 0.322473 0.161927
199 1 0.846138 0.381154 0.0856873
200 1 0.933199 0.449188 0.0506069
201 1 0.0524856 0.552506 0.0833571
202 1 0.991454 0.802785 0.951053
203 1 0.969633 0.565561 0.923347
204 1 0.950135 0.63368 0.0606167
205 1 0.112004 0.523539 0.868081
206 1 0.0182655 0.699549 0.975544
207 1 0.0772594 0.535366 0.973405
208 1 0.0500778 0.539992 0.882055
209 1 0.046245 0.380204 0.0710095
210 1 0.144082 0.535335 0.982067
211 1 0.187688 0.398013 0.0804849
212 1 0.0639593 0.703066 0.0243182
213 1 0.115079 0.486319 0.987636
214 1 0.329364 0.72298 0.834127
215 1 0.408614 0.500989 0.920691
216 1 0.227721 0.477164 0.0635702
217 1 0.375103 0.523408 0.980549
218 1 0.402675 0.496801 0.149248
219 1 0.389386 0.524009 0.0955676
220 1 0.247785 0.486368 0.207658
221 1 0.636835 0.404051 0.951197
222 1 0.546217 0.44656 0.157352
223 1 0.575445 0.482725 0.115326
224 1 0.464469 0.502147 0.100075
225 1 0.563858 0.63508 0.95054
226 1 0.775497 0.372807 0.960028
227 1 0.447293 0.548697 0.136709
228 1 0.570585 0.511486 0.0526632
229 1 0.00467112 0.586375 0.0673731
230 1 0.866291 0.411055 0.031193
231 1 0.714653 0.576452 0.989432
232 1 0.651379 0.465273 0.208324
233 1 0.807362 0.46991 0.936636
234 1 0.809765 0.52632 0.961164
235 1 0.84527 0.549665 0.0610211
236 1 0.902886 0.581163 0.040985
237 1 0.886926 0.351729 0.0361346
238 1 0.908208 0.445871 0.994872
239 1 0.965855 0.538546 0.0847289
240 1 0.918169 0.508799 0.217271
241 1 0.883113 0.764265 0.134506
242 1 0.0361551 0.584217 0.931649
243 1 0.936609 0.622762 1.00001
244 1 0.966482 0.725611 0.957264
245 1 0.0499683 0.650047 1.00046
246 1 0.175491 0.598237 0.906297
247 1 0.0512501 0.590364 0.998462
248 1 0.867759 0.629348 0.965339
249 1 0.213549 0.824221 0.119141
250 1 0.186926 0.698098 0.966484
251 1 0.255215 0.639164 0.0417725
252 1 0.387932 0.687796 0.857615
253 1 0.263769 0.691028 1.00078
254 1 0.255442 0.499898 0.00290012
255 1 0.362286 0.558864 0.0296836
256 1 0.325413 0.646493 -0.000692569
257 1 0.298469 0.595986 0.029811
258 1 0.333863 0.645713 0.761605
259 1 0.286845 0.499514 0.066423
260 1 0.443388 0.679169 0.0904209
261 1 0.472194 0.574332 0.00795876
262 1 0.495295 0.557614 0.171566
263 1 0.509734 0.500662 0.139604
264 1 0.404881 0.671268 0.158999
265 1 0.441747 0.525018 0.969339
266 1 0.661081 0.745043 0.0901189
267 1 0.607758 0.537013 0.106988
268 1 0.651087 0.566499 0.137235
269 1 0.743775 0.497694 0.0269012
270 1 0.709318 0.610371 0.135403
271 1 0.676948 0.544585 0.238772
272 1 0.858668 0.50815 0.996253
273 1 0.781153 0.573366 0.0674455
274 1 0.765823 0.80377 0.00273003
275 1 0.75188 0.631599 0.0195585
276 1 0.658323 0.594965 0.00340933
277 1 0.777523 0.573857 0.00144045
278 1 0.884396 0.660548 0.908873
279 1 0.756016 0.612209 0.962833
280 1 0.766647 0.69486 0.0283895
281 1 0.907475 0.761619 0.0497799
282 1 0.111923 0.924096 0.0612904
283 1 0.884625 0.693159 0.143722
284 1 0.913861 0.834577 0.906517
285 1 0.985454 0.765831 0.0690082
286 1 0.283979 0.856257 0.0200488
287 1 0.269725 0.571959 0.963852
288 1 0.0237115 0.680535 0.0740522
289 1 0.280257 0.905597 0.969691
290 1 0.346751 0.762982 0.898453
291 1 0.32673 0.678038 0.0724716
292 1 0.362461 0.765796 0.0332065
293 1 0.232815 0.560616 0.0783625
294 1 0.434255 0.672246 0.93651
295 1 0.266451 0.619526 0.0981322
296 1 0.264375 0.662405 0.198857
297 1 0.48206 0.802583 0.980597
298 1 0.468165 0.733929 0.0332219
299 1 0.351976 0.642654 0.892634
300 1 0.357678 0.96726 0.891512
301 1 0.345249 0.675007 0.132931
302 1 0.382731 0.650238 0.0823185
303 1 0.69539 0.646191 0.19152
304 1 0.590203 0.775895 0.982781
305 1 0.383152 0.55981 0.92917
306 1 0.445219 0.707639 0.884664
307 1 0.658752 0.78433 0.0277369
308 1 0.62327 0.708548 0.132108
309 1 0.731689 0.606211 0.0714825
310 1 0.807655 0.814973 0.945635
311 1 0.760208 0.581979 0.165163
312 1 0.529853 0.605069 0.132252
313 1 0.630945 0.633194 0.959281
314 1 0.855668 0.794313 0.855289
315 1 0.869274 0.729493 0.00726176
316 1 0.682974 0.717826 0.0400707
317 1 0.913506 0.74442 0.971799
318 1 0.967675 0.671156 0.861912
319 1 0.850212 0.624812 0.0617162
320 1 0.850769 0.687013 0.968781
321 1 0.96976 0.921294 0.898124
322 1 0.858334 0.913179 0.887198
323 1 0.0549441 0.749706 0.0625604
324 1 0.941164 0.874776 0.00637259
325 1 0.0941803 0.857777 0.989202
326 1 0.162297 0.762727 0.857567
327 1 0.967695 0.66384 0.117171
328 1 0.170582 0.856675 0.951881
329 1 0.0733659 0.739314 0.964521
330 1 0.273127 0.966245 0.94424
331 1 0.368188 0.707676 0.928271
332 1 0.195087 0.94644 0.159653
333 1 0.346146 0.0400024 0.0496885
334 1 0.251904 0.760264 0.00843333
335 1 0.41026 0.782781 0.0829869
336 1 0.179738 0.889422 0.194823
337 1 0.231196 0.803875 0.92545
338 1 0.371163 0.889395 0.00232493
339 1 0.265607 0.837539 0.871496
340 1 0.28675 0.926484 0.114459
341 1 0.509766 0.685292 0.946575
342 1 0.51034 0.885449 0.18271
343 1 0.585215 0.937301 0.0495513
344 1 0.408933 0.711208 0.0481916
345 1 0.52041 0.432442 0.105649
346 1 0.665124 0.951721 0.950872
347 1 0.482961 0.639503 0.14033
348 1 0.567215 0.849929 0.188513
349 1 0.61756 0.732716 0.0363362
350 1 0.663855 0.852587 0.0043372
351 1 0.682857 0.683916 0.0974495
352 1 0.860009 0.910025 0.240703
353 1 0.770568 0.00360904 0.911504
354 1 0.753192 0.842787 0.0518328
355 1 0.854614 0.786948 0.0429745
356 1 0.705957 0.815642 0.0268706
357 1 0.798177 0.803284 0.0665455
358 1 0.0106878 0.751598 0.916689
359 1 0.885909 0.651378 0.0182202
360 1 0.871889 0.923233 0.0807847
361 1 0.210618 0.807719 0.988602
362 1 0.0735832 0.872308 0.829675
363 1 0.121816 0.784481 0.0457788
364 1 0.113594 0.00762757 0.0299636
365 1 0.953587 0.999078 0.990319
366 1 0.145015 0.88922 0.00497845
367 1 0.170072 0.947159 0.104433
368 1 0.228267 0.0794569 0.137995
369 1 0.25674 0.187647 0.149518
370 1 0.295428 0.280526 0.13298
371 1 0.196832 0.0546282 0.0705241
372 1 0.127574 0.964182 0.156669
373 1 0.378062 -0.000175529 0.951505
374 1 0.207838 0.939333 0.981604
375 1 0.310923 0.725604 0.0288799
376 1 0.304619 0.984955 0.00547954
377 1 0.450635 0.800081 0.92452
378 1 0.480123 0.878213 0.903801
379 1 0.519718 0.934735 0.0855129
380 1 0.489459 0.87736 0.121852
381 1 0.484278 0.887095 0.0465347
382 1 0.580964 0.163277 0.120139
383 1 0.637112 0.134473 0.16439
384 1 0.460949 0.935858 0.271667
385 1 0.638539 0.896178 0.0468508
386 1 0.774612 0.0729623 0.0563923
387 1 0.624034 0.976109 0.0204556
388 1 0.568709 0.0537248 0.971764
389 1 0.702232 0.012714 0.893104
390 1 0.899125 0.967491 0.00789873
391 1 0.733639 0.935969 0.124756
392 1 0.71552 0.849392 0.122594
393 1 0.677359 0.919606 0.760773
394 1 0.952792 0.96914 0.937011
395 1 0.645549 0.764759 0.148851
396 1 0.787807 0.0216716 0.798214
397 1 0.0699533 0.0535179 0.0451701
398 1 0.928494 0.925538 0.969432
399 1 0.0313157 0.965642 0.99676
400 1 0.765263 0.892302 0.979094
401 1 0.976129 0.105407 0.970514
402 1 0.207914 0.133461 0.156552
403 1 0.0513974 0.0525903 0.106953
404 1 0.791982 0.114584 0.119428
405 1 0.215508 0.0780937 0.264262
406 1 0.216146 0.130542 0.0915691
407 1 0.239933 0.978866 0.104788
408 1 0.27371 0.13564 0.184254
409 1 0.201701 0.175141 0.206862
410 1 0.269589 0.0345675 0.122771
411 1 0.129551 0.902935 0.139689
412 1 0.252609 0.956671 0.16141
413 1 0.315113 0.976943 0.145268
414 1 0.387109 0.0591773 0.10349
415 1 0.341582 0.0346277 0.984544
416 1 0.408995 0.0988068 0.244365
417 1 0.323037 0.928946 0.00985317
418 1 0.459452 0.0630043 0.213685
419 1 0.50879 0.0351527 0.250691
420 1 0.347048 0.00305338 0.219314
421 1 0.376251 0.999236 0.141537
422 1 0.669702 0.0368623 0.135105
423 1 0.674429 0.803805 0.274913
424 1 0.497054 0.981428 0.219763
425 1 0.467721 0.929642 0.205431
426 1 0.730133 0.98832 0.158546
427 1 0.790574 0.958204 0.144772
428 1 0.572947 0.106892 0.00702281
429 1 0.681158 0.187221 0.999263
430 1 0.677395 0.132515 0.0447969
431 1 0.805971 0.933129 0.0885014
432 1 0.663848 0.0633498 0.202324
433 1 0.849526 0.976289 0.0513146
434 1 0.893928 0.0298492 0.158846
435 1 0.802539 0.0870445 0.996965
436 1 0.792174 0.0557097 0.213204
437 1 0.777603 0.966236 0.0346357
438 1 0.771704 0.118384 0.957852
439 1 0.829123 0.0281968 0.99261
440 1 0.893446 0.0887557 0.0611266
441 1 0.108294 0.049251 0.978781
442 1 0.0667434 0.176496 0.982979
443 1 0.0316741 0.145428 0.0584143
444 1 0.992555 0.052799 0.124639
445 1 0.221949 0.963492 0.920798
446 1 0.0896779 0.153079 0.128082
447 1 0.999497 0.148392 0.247529
448 1 0.253806 0.0771705 0.0795926
449 1 0.138426 0.124521 0.344122
450 1 0.149175 0.23576 0.2074
451 1 0.381809 0.998714 0.0801671
452 1 0.253749 0.0122953 0.182353
453 1 0.161424 0.179083 0.166689
454 1 0.289234 0.379617 0.0477043
455 1 0.405547 0.940261 0.208969
456 1 0.207178 0.350583 0.117078
457 1 0.305052 0.0930834 0.139032
458 1 0.465263 0.0522224 0.0524267
459 1 0.54742 0.0460519 0.139676
460 1 0.338038 0.173514 0.056813
461 1 0.569147 0.897984 0.0893083
462 1 0.331624 0.996363 0.345087
463 1 0.379089 0.875998 0.296805
464 1 0.519067 0.175696 0.136641
465 1 0.59642 0.945619 0.115138
466 1 0.702486 0.201426 0.936402
467 1 0.595079 0.0356963 0.184829
468 1 0.736117 0.163358 0.214563
469 1 0.81812 0.372236 0.902075
470 1 0.566425 0.107882 0.079829
471 1 0.798206 0.187478 0.0344659
472 1 0.617885 0.0651284 0.909329
473 1 0.888091 0.270075 0.205103
474 1 0.0643674 0.219976 0.900927
475 1 0.983843 0.040294 0.917716
476 1 0.88774 0.139261 0.916016
477 1 0.816244 0.00372047 0.0894152
478 1 0.968258 0.150919 0.0641812
479 1 0.861492 0.1128 0.120831
480 1 0.915115 0.0451687 0.998316
481 1 0.997075 0.228552 0.0165877
482 1 0.121433 0.252417 0.985773
483 1 0.0942982 0.0921888 0.114646
484 1 0.931461 0.251105 0.151241
485 1 0.153598 0.068853 0.161498
486 1 0.226509 0.29779 0.128792
487 1 0.171184 0.332064 0.240563
488 1 0.968017 0.292402 0.120564
489 1 0.0257625 0.0797059 0.170041
490 1 0.265416 0.31084 0.181285
491 1 0.322369 0.251574 0.0619042
492 1 0.153875 0.304246 0.125613
493 1 0.188304 0.299265 0.071662
494 1 0.42731 0.104712 0.176483
495 1 0.349351 0.327647 0.204727
496 1 0.306597 0.390001 0.174551
497 1 0.346718 0.122776 0.0129305
498 1 0.361144 0.0980426 0.191114
499 1 0.390756 0.173922 0.238859
500 1 0.363394 0.135314 0.943651
501 1 0.49672 0.10791 0.266091
502 1 0.453158 0.129572 0.12822
503 1 0.648508 0.326671 0.150494
504 1 0.384941 0.306767 0.152618
505 1 0.592897 0.0330874 0.0238729
506 1 0.661365 0.40597 0.187609
507 1 0.714806 0.105213 0.206437
508 1 0.651514 0.125376 0.104934
509 1 0.677709 0.200061 0.0573344
510 1 0.726812 0.0932711 0.0255358
511 1 0.624044 0.0858138 0.0570337
512 1 0.703604 0.19109 0.281779
513 1 0.727828 0.228616 0.0926826
514 1 0.947608 0.269351 0.0314543
515 1 0.768149 0.163448 0.0994295
516 1 0.874644 0.276584 0.0363469
517 1 0.947482 0.133334 0.90749
518 1 0.915367 0.188733 0.0886006
519 1 0.983367 0.209074 0.342009
520 1 0.939107 0.189305 0.0247712
521 1 0.0931774 0.294266 0.0111564
522 1 0.0244942 0.290716 0.0809419
523 1 0.918092 0.19327 0.197111
524 1 0.934449 0.329326 0.0617838
525 1 0.0946348 0.169074 0.923125
526 1 0.267575 0.257109 0.0146381
527 1 0.0906911 0.285872 0.0776163
528 1 0.187867 0.249847 0.944788
529 1 0.249817 0.285288 0.065062
530 1 0.233362 0.351618 0.0562382
531 1 0.138807 0.352001 0.175509
532 1 0.149547 0.383206 0.961224
533 1 0.304615 0.309818 0.0511372
534 1 0.198182 0.443324 0.00150195
535 1 0.339805 0.42238 0.135777
536 1 0.281383 0.358542 0.221754
537 1 0.370968 0.369085 0.152727
538 1 0.573944 0.219908 0.110424
539 1 0.469197 0.317488 0.0846664
540 1 0.49698 0.430457 0.255859
541 1 0.578853 0.202887 0.922314
542 1 0.590051 0.193251 0.184834
543 1 0.61025 0.0985151 0.210614
544 1 0.441056 0.436199 0.915525
545 1 0.621932 0.212353 0.980866
546 1 0.514577 0.366588 0.0802228
547 1 0.532706 0.301429 0.0754091
548 1 0.699262 0.351181 0.176149
549 1 0.737359 0.250654 0.948996
550 1 0.87812 0.269295 0.132486
551 1 0.619949 0.187814 0.883286
552 1 0.741793 0.338192 0.125986
553 1 0.923217 0.0842506 0.952954
554 1 0.773805 0.42536 0.175201
555 1 0.791064 0.301825 0.155067
556 1 0.791095 0.245218 0.30995
557 1 0.00522378 0.349487 0.956854
558 1 0.830894 0.345629 0.96505
559 1 0.799066 0.215312 0.0889993
560 1 0.853347 0.320835 0.169337
561 1 0.0267491 0.344525 0.131445
562 1 0.929772 0.456144 0.163515
563 1 0.0298751 0.384106 0.0115111
564 1 0.0356508 0.284647 0.143102
565 1 0.205516 0.551987 0.951209
566 1 0.147956 0.462327 0.036138
567 1 0.992255 0.358862 0.0562625
568 1 0.209896 0.429371 0.20447
569 1 0.127505 0.394287 0.0535187
570 1 0.995714 0.420725 0.0586429
571 1 0.172142 0.364171 0.021017
572 1 0.0572769 0.325371 0.0425091
573 1 0.243294 0.269559 0.955971
574 1 0.0253444 0.460407 0.908719
575 1 0.466872 0.471451 0.00744254
576 1 0.315702 0.336722 0.9976
577 1 0.276715 0.334939 0.0975031
578 1 0.51747 0.240844 0.860732
579 1 0.484571 0.437598 0.0536022
580 1 0.321542 0.500254 0.140983
581 1 0.580688 0.450981 0.0571133
582 1 0.501998 0.46731 0.193573
583 1 0.702563 0.444574 0.00560388
584 1 0.451152 0.385741 0.0993003
585 1 0.523797 0.485466 0.0702434
586 1 0.599488 0.427559 0.135506
587 1 0.577076 0.336402 0.0429334
588 1 0.416789 0.516967 0.236048
589 1 0.651803 0.261114 0.0143577
590 1 0.759034 0.345234 0.23325
591 1 0.688849 0.364892 0.103925
592 1 0.642235 0.428622 0.0167304
593 1 0.821197 0.316671 0.0323027
594 1 0.809473 0.301917 0.212294
595 1 0.913621 0.249362 0.0785164
596 1 0.857459 0.396587 0.186496
597 1 0.89052 0.428474 0.0938141
598 1 0.860583 0.481868 0.0520718
599 1 0.915473 0.229045 0.246827
600 1 0.783926 0.540398 0.19745
601 1 0.0272028 0.482164 0.215596
602 1 0.95811 0.562422 0.0292006
603 1 0.0396481 0.488546 0.119975
604 1 0.917157 0.68128 0.969009
605 1 0.00655401 0.301802 0.0170622
606 1 0.152224 0.495844 0.152547
607 1 0.0898496 0.441711 0.942374
608 1 0.0117589 0.532971 0.028002
609 1 0.15865 0.453673 0.0989216
610 1 0.20136 0.628051 0.0811171
611 1 0.186737 0.587505 0.189947
612 1 0.0930743 0.62656 0.0378537
613 1 0.0790931 0.515646 0.0384738
614 1 0.347298 0.524283 0.199806
615 1 0.102123 0.424966 0.999449
616 1 0.402967 0.631854 0.284541
617 1 0.281136 0.447556 0.105894
618 1 0.37376 0.405869 0.0317619
619 1 0.2733 0.563369 0.127859
620 1 0.209136 0.486738 0.956968
621 1 0.315987 0.557369 0.079577
622 1 0.595119 0.481524 0.179174
623 1 0.627446 0.477653 0.0898167
624 1 0.458556 0.470023 0.307348
625 1 0.567141 0.519262 0.992992
626 1 0.764567 0.412519 0.238017
627 1 0.573878 0.392825 0.0837702
628 1 0.555212 0.465607 0.244796
629 1 0.609177 0.548499 0.191026
630 1 0.654989 0.597861 0.0835375
631 1 0.786145 0.393126 0.113556
632 1 0.72718 0.521363 0.217995
633 1 0.849243 0.499702 0.238896
634 1 0.88811 0.515178 0.15937
635 1 0.799613 0.507363 0.0778492
636 1 0.804302 0.578078 0.128844
637 1 0.775966 0.464249 0.126855
638 1 0.807199 0.636512 0.00220376
639 1 0.0371589 0.46688 0.058329
640 1 0.982207 0.42472 0.139708
641 1 0.0288345 0.542508 0.139592
642 1 0.10617 0.582184 0.0910286
643 1 0.192258 0.677709 0.124423
644 1 0.107581 0.834503 0.280194
645 1 0.983055 0.479822 0.0836716
646 1 0.267921 0.688608 0.0752252
647 1 0.140109 0.711711 0.136178
648 1 0.111885 0.645667 0.0997426
649 1 0.127417 0.510337 0.0872926
650 1 0.205924 0.685033 0.064138
651 1 0.19203 0.511344 0.0196781
652 1 0.284811 0.665602 0.141943
653 1 0.235442 0.584076 0.0175108
654 1 0.265655 0.598965 0.187048
655 1 0.211466 0.573272 0.136673
656 1 0.378877 0.585413 0.0822949
657 1 0.296642 0.730523 0.113295
658 1 0.44473 0.561189 0.2092
659 1 0.339458 0.588691 0.194756
660 1 0.53764 0.84583 0.134293
661 1 0.540629 0.521169 0.196217
662 1 0.44112 0.614381 0.102397
663 1 0.560293 0.67905 0.234839
664 1 0.349838 0.556689 0.135368
665 1 0.563982 0.549965 0.150166
666 1 0.8934 0.655529 0.264365
667 1 0.554781 0.534909 0.262209
668 1 0.81582 0.676588 0.164972
669 1 0.629425 0.666397 0.0615193
670 1 0.801177 0.520767 0.0189268
671 1 0.72588 0.472541 0.174824
672 1 0.752394 0.643061 0.222748
673 1 0.779326 0.63799 0.131313
674 1 0.838645 0.679427 0.109942
675 1 0.901576 0.635796 0.0994476
676 1 0.811214 0.627994 0.204246
677 1 0.718555 0.54728 0.0740113
678 1 0.944926 0.586334 0.116505
679 1 0.930488 0.704299 0.0256328
680 1 0.901328 0.574533 0.171275
681 1 0.12989 0.76445 0.176953
682 1 0.919564 0.641417 0.153898
683 1 0.0659719 0.67619 0.137648
684 1 0.936229 0.810067 0.240987
685 1 0.109917 0.777258 0.108175
686 1 0.997207 0.709204 0.0336966
687 1 0.246863 0.833908 0.0654799
688 1 0.199725 0.791976 0.0586254
689 1 0.328309 0.619659 0.0726984
690 1 0.331937 0.798621 0.0720889
691 1 0.192031 0.77876 0.251479
692 1 0.128982 0.748982 0.235927
693 1 0.324947 0.66005 0.192306
694 1 0.450925 0.750147 0.114006
695 1 0.433518 0.715443 0.191477
696 1 0.471022 0.703919 0.145986
697 1 0.57176 0.695056 0.0703381
698 1 0.41163 0.723166 0.975617
699 1 0.455858 0.472388 0.23676
700 1 0.430733 0.851466 0.2924
701 1 0.519832 0.715947 0.0578093
702 1 0.603908 0.837769 0.992718
703 1 0.595019 0.608103 0.159059
704 1 0.3122 0.794529 0.014344
705 1 0.484937 0.683255 0.000306973
706 1 0.673261 0.810878 0.0858725
707 1 0.821978 0.649488 0.266485
708 1 0.71611 0.615078 0.286122
709 1 0.644399 0.64935 0.130463
710 1 0.772854 0.705852 0.0937739
711 1 0.60775 0.501828 0.24482
712 1 0.735183 0.71143 0.203396
713 1 0.811458 0.750244 0.000273023
714 1 0.950397 0.781033 0.177994
715 1 0.865286 0.575751 0.117261
716 1 0.799491 0.64801 0.0682586
717 1 0.824151 0.761983 0.107774
718 1 0.814698 0.732375 0.0551652
719 1 0.0864065 0.727496 0.201516
720 1 0.78068 0.789681 0.142876
721 1 0.0087895 0.843768 0.085293
722 1 0.143125 0.823278 0.091295
723 1 0.190461 0.748063 0.17816
724 1 0.0103048 0.667703 0.156051
725 1 0.0671828 0.814826 0.080975
726 1 0.292812 0.0747651 0.0134659
727 1 0.013382 0.61141 0.305962
728 1 0.990333 0.00259658 0.0388895
729 1 0.0385777 0.830388 0.13667
730 1 0.142709 0.979412 0.982453
731 1 0.208881 0.685676 0.189259
732 1 0.31508 0.72583 0.202299
733 1 0.309856 0.910933 0.164579
734 1 0.318648 0.831584 0.234645
735 1 0.39919 0.679281 0.235822
736 1 0.408885 0.827205 0.132932
737 1 0.480335 0.756213 0.195232
738 1 0.626129 0.857247 0.0968668
739 1 0.502166 0.779876 0.0549273
740 1 0.253513 0.745899 0.21849
741 1 0.696396 0.947085 0.196547
742 1 0.62031 0.870842 0.220336
743 1 0.580493 0.860606 0.043959
744 1 0.399083 0.945648 0.276985
745 1 0.489895 0.799802 0.119299
746 1 0.757022 0.889146 0.0951225
747 1 0.533061 0.79145 0.173881
748 1 0.36615 0.714239 0.181356
749 1 0.762446 0.521494 0.131583
750 1 0.73783 0.801395 0.0925048
751 1 0.720545 0.734992 0.095009
752 1 0.681037 0.896082 0.16369
753 1 0.858646 0.788041 0.975331
754 1 0.907171 0.00563187 0.845335
755 1 0.693641 0.724358 0.149028
756 1 0.760515 0.7726 0.196922
757 1 0.955236 0.81596 0.0514153
758 1 0.949848 0.946857 0.078234
759 1 0.960621 0.868709 0.175406
760 1 0.83039 0.684864 0.0275527
761 1 0.0251291 0.734936 0.175357
762 1 0.982152 0.0364303 0.180397
763 1 0.0665561 0.965398 0.0475307
764 1 0.929338 0.0357235 0.0700217
765 1 0.195754 0.873308 0.0489221
766 1 0.0920727 0.13135 0.0687448
767 1 0.153172 0.998458 0.279615
768 1 0.00707418 0.926916 0.206311
769 1 0.356299 0.923921 0.118874
770 1 0.0171439 0.932501 0.842731
771 1 0.227245 0.919631 0.0809968
772 1 0.0792299 0.955147 0.120991
773 1 0.370084 0.88576 0.175073
774 1 0.264449 0.130965 0.123433
775 1 0.299906 0.899801 0.225903
776 1 0.253672 0.935903 0.374772
777 1 0.405668 0.950596 0.992593
778 1 0.55297 0.914098 0.150595
779 1 0.429462 0.863787 0.0239531
780 1 0.299444 0.769896 0.953865
781 1 0.429781 0.885021 0.178802
782 1 0.564873 0.97595 0.196231
783 1 0.352567 0.933877 0.242074
784 1 0.672562 0.909804 0.10336
785 1 0.503019 0.610148 0.20286
786 1 0.527011 0.848624 0.0689628
787 1 0.61527 0.733733 0.19642
788 1 0.470196 0.969218 0.12249
789 1 0.655436 0.952623 0.146552
790 1 0.785437 0.0286563 0.141712
791 1 0.899402 0.825406 0.0195861
792 1 0.545828 0.974434 0.333457
793 1 0.778065 0.724636 0.154774
794 1 0.552677 0.983619 0.123435
795 1 0.974175 0.93952 0.0127688
796 1 0.769745 0.868987 0.160662
797 1 0.875834 0.903708 0.0166901
798 1 0.872568 0.0338965 0.0427702
799 1 0.988864 0.144347 0.177693
800 1 0.89349 0.998856 0.958576
801 1 0.0227352 0.989849 0.0948925
802 1 0.114727 0.00937133 0.193782
803 1 0.17248 0.0506376 0.235164
804 1 0.98418 0.0600821 0.237705
805 1 0.836902 0.0640571 0.083364
806 1 0.0559601 0.0756547 0.224003
807 1 0.993109 0.967543 0.351451
808 1 0.090475 0.987194 0.246093
809 1 0.244814 0.889763 0.15309
810 1 0.188976 0.994384 0.2016
811 1 0.154607 0.946443 0.220459
812 1 0.180334 0.107632 0.2112
813 1 0.331425 0.929589 0.300745
814 1 0.177 0.0108424 0.144399
815 1 0.472205 0.02283 0.330217
816 1 0.195967 0.94873 0.277771
817 1 0.420356 0.0367548 0.166344
818 1 0.386608 0.926393 0.401121
819 1 0.423919 0.904103 0.333597
820 1 0.357882 -7.92701e-06 0.277935
821 1 0.516787 0.816243 0.234806
822 1 0.534064 0.176278 0.278106
823 1 0.672854 0.922 0.251979
824 1 0.550716 0.988085 0.267312
825 1 0.603255 0.0196603 0.105015
826 1 0.755311 0.989035 0.101987
827 1 0.855569 0.863441 0.184527
828 1 0.778058 0.109613 0.231276
829 1 0.890097 0.00124452 0.0997146
830 1 0.853074 0.927054 0.299081
831 1 0.648534 0.844221 0.147672
832 1 0.747613 0.0710794 0.166478
833 1 0.70123 0.801581 0.158467
834 1 0.933194 0.990446 0.175069
835 1 0.86025 0.121346 0.208734
836 1 0.831724 0.926417 0.188595
837 1 0.0750226 0.957378 0.182011
838 1 0.95761 0.268136 0.206979
839 1 0.0528333 0.862385 0.0411346
840 1 0.866673 0.0810816 0.293509
841 1 0.105129 0.112937 0.236819
842 1 0.927829 0.133485 0.997533
843 1 0.0450265 0.215511 0.257957
844 1 0.080847 0.181209 0.34438
845 1 0.895125 0.132411 0.274153
846 1 0.109258 0.207941 0.172145
847 1 0.106258 0.198767 0.286856
848 1 0.0835535 0.0567546 0.340517
849 1 0.0557159 0.128816 0.192065
850 1 0.299724 0.965362 0.206618
851 1 0.183534 0.0449249 0.308231
852 1 0.327219 0.179539 0.227849
853 1 0.27442 0.0420482 0.245766
854 1 0.349859 0.188933 0.972179
855 1 0.54444 0.0544809 0.0748806
856 1 0.506538 0.228372 0.169734
857 1 0.383785 0.154475 0.295675
858 1 0.479565 0.152435 0.306973
859 1 0.543717 0.0589517 0.299773
860 1 0.3907 0.0745407 0.306808
861 1 0.600507 0.0891389 0.147955
862 1 0.546324 0.195357 0.337445
863 1 0.445227 0.985664 0.179046
864 1 0.526148 0.029278 0.194941
865 1 0.486596 0.0160392 0.150575
866 1 0.609818 0.155161 0.0669322
867 1 0.633548 0.927899 0.202751
868 1 0.658566 0.250735 0.155066
869 1 0.687672 0.0704343 0.0797236
870 1 0.76684 0.924893 0.186466
871 1 0.692616 0.16691 0.158874
872 1 0.868942 0.0584113 0.23788
873 1 0.901529 0.0870542 0.185614
874 1 0.834473 0.170168 0.130008
875 1 0.781095 0.995734 0.197128
876 1 0.804572 0.123896 0.17648
877 1 0.780045 0.187529 0.161988
878 1 0.948085 0.184723 0.145134
879 1 1.00054 0.2329 0.151661
880 1 0.843696 0.0602148 0.149882
881 1 0.199242 0.129831 0.316669
882 1 0.828378 0.298234 0.105613
883 1 0.291369 0.0420796 0.305958
884 1 0.0462729 0.192245 0.182996
885 1 0.153653 0.292883 0.189458
886 1 0.838218 0.233419 0.247291
887 1 0.158547 0.168952 0.307634
888 1 0.046522 0.230941 0.322207
889 1 0.222555 0.242888 0.254753
890 1 0.970463 0.223113 0.0890215
891 1 0.270588 0.248155 0.187585
892 1 0.180195 0.246014 0.109137
893 1 0.289888 0.108577 0.24724
894 1 0.412098 0.358173 0.194795
895 1 0.415789 0.245717 0.381653
896 1 0.287696 0.229191 0.270149
897 1 0.35064 0.117793 0.250159
898 1 0.33262 0.266078 0.18526