ITEM: TIMESTEP
500
ITEM: NUMBER OF ATOMS
4000
ITEM: BOX BOUNDS pp pp pp
0.0000000000000000e+00 1.6795961913825074e+01
0.0000000000000000e+00 1.6795961913825074e+01
0.0000000000000000e+00 1.6795961913825074e+01
ITEM: ATOMS id type xs ys zs
1 1 0.000403708 0.00394774 0.996094
2 1 0.0527216 0.050306 -0.000356484
3 1 0.0516316 0.000738406 0.0514108
4 1 0.998287 0.0543775 0.0469934
5 1 0.103689 0.998782 0.000754207
6 1 0.150433 0.0471456 0.997347
7 1 0.152834 -0.000231954 0.0504045
8 1 0.0963009 0.0533253 0.0546286
9 1 0.197388 0.995827 0.998013
10 1 0.248544 0.0499366 0.998641
11 1 0.248388 1.0001 0.0480414
12 1 0.200166 0.0505025 0.0500834
13 1 0.298542 -5.05146e-05 0.0018125
14 1 0.347817 0.0512567 0.998171
15 1 0.349107 0.000537354 0.0490863
16 1 0.294859 0.0498223 0.0518173
17 1 0.396758 0.00377434 0.998105
18 1 0.453072 0.0496228 0.0014401
19 1 0.450234 0.000101469 0.0513766
20 1 0.398799 0.0519908 0.0496086
21 1 0.500168 0.996919 0.00237952
22 1 0.545372 0.0521089 0.997591
23 1 0.557443 0.00117603 0.0498697
24 1 0.501609 0.0466358 0.0503457
25 1 0.603414 0.998937 0.998576
26 1 0.652915 0.0506567 0.00317986
27 1 0.648774 0.995795 0.0517502
28 1 0.599304 0.0552667 0.0471445
29 1 0.701481 0.00184556 0.0015565
30 1 0.750114 0.0536601 0.00134568
31 1 0.752401 1.00017 0.0447036
32 1 0.703063 0.048798 0.052954
33 1 0.801557 0.000807159 0.997352
34 1 0.847561 0.0555059 0.996881
35 1 0.853758 0.00127272 0.0454762
36 1 0.803227 0.0496222 0.0495739
37 1 0.899029 0.0013655 0.996129
38 1 0.952303 0.0503856 0.996909
39 1 0.952245 0.000540113 0.0446339
40 1 0.899181 0.0502343 0.0470168
41 1 0.000488023 0.100752 0.998421
42 1 0.0478669 0.150117 0.00107948
43 1 0.0480904 0.0993997 0.0488665
44 1 0.99995 0.150974 0.0489767
45 1 0.0986376 0.103758 0.00143753
46 1 0.146431 0.149578 0.998813
47 1 0.14703 0.0986539 0.0502604
48 1 0.0972558 0.150755 0.0514021
49 1 0.198634 0.098157 1.00014
50 1 0.247168 0.147889 0.00124797
51 1 0.246671 0.0976873 0.0522605
52 1 0.196546 0.146867 0.0490349
53 1 0.296548 0.0989637 0.000435953
54 1 0.34473 0.153077 0.999784
55 1 0.344066 0.0962048 0.0485526
56 1 0.296598 0.146516 0.0530661
57 1 0.397476 0.0990888 0.000657127
58 1 0.451313 0.151225 0.999187
59 1 0.451193 0.103563 0.0469397
60 1 0.400034 0.15325 0.048057
61 1 0.498983 0.101812 0.996537
62 1 0.552414 0.153224 0.995547
63 1 0.549004 0.0982751 0.0525725
64 1 0.499308 0.150849 0.0497331
65 1 0.599099 0.101864 0.99924
66 1 0.652549 0.150388 0.00394522
67 1 0.650489 0.102173 0.0518587
68 1 0.599792 0.14609 0.0522531
69 1 0.697961 0.101252 0.999394
70 1 0.750355 0.15403 0.00336594
71 1 0.755129 0.100513 0.0498467
72 1 0.701305 0.148715 0.0542119
73 1 0.800278 0.104886 0.000774729
74 1 0.851265 0.149087 0.000235932
75 1 0.848566 0.101919 0.0523108
76 1 0.801778 0.15155 0.0503864
77 1 0.902872 0.100628 0.00014669
78 1 0.949386 0.149844 0.00172832
79 1 0.946966 0.103487 0.0502559
80 1 0.898257 0.150227 0.0531848
81 1 0.00138207 0.198235 0.00235773
82 1 0.047931 0.249912 0.0023487
83 1 0.0488839 0.199964 0.0541874
84 1 0.00263901 0.248756 0.0534973
85 1 0.0958313 0.200003 0.999588
86 1 0.146072 0.247461 0.998209
87 1 0.146374 0.202506 0.0482059
88 1 0.0968235 0.250029 0.0512584
89 1 0.196117 0.198077 -4.58611e-05
90 1 0.247608 0.250239 0.00171779
91 1 0.246662 0.197818 0.0484755
92 1 0.195211 0.251049 0.0483914
93 1 0.297307 0.200769 0.997894
94 1 0.349646 0.251754 0.99621
95 1 0.344645 0.201916 0.0494837
96 1 0.298031 0.255861 0.0471739
97 1 0.396548 0.202015 0.998696
98 1 0.449987 0.247561 0.999585
99 1 0.450012 0.200837 0.0517742
100 1 0.40178 0.251951 0.050222
101 1 0.498345 0.200121 0.997501
102 1 0.550422 0.249081 0.998019
103 1 0.552154 0.198456 0.0519007
104 1 0.503255 0.248134 0.0493742
105 1 0.603998 0.199823 0.999406
106 1 0.653011 0.251881 0.0018681
107 1 0.652817 0.197895 0.0482782
108 1 0.601132 0.251008 0.0505344
109 1 0.70333 0.200692 0.000109858
110 1 0.751749 0.250442 7.80011e-05
111 1 0.749783 0.200535 0.0514842
112 1 0.700743 0.249714 0.0503086
113 1 0.80107 0.199556 0.000628027
114 1 0.851171 0.250949 0.999364
115 1 0.851066 0.199811 0.0514801
116 1 0.802967 0.250298 0.0529133
117 1 0.903748 0.200142 0.998801
118 1 0.952232 0.249025 0.00180776
119 1 0.947714 0.195574 0.0498685
120 1 0.901196 0.248 0.0529556
121 1 0.99726 0.301159 0.999254
122 1 0.0492483 0.349172 0.999711
123 1 0.0493367 0.303098 0.0571359
124 1 0.99721 0.350531 0.0504191
125 1 0.100428 0.298223 0.00261033
126 1 0.148509 0.347975 0.996969
127 1 0.14955 0.299636 0.0495577
128 1 0.100704 0.348694 0.0474398
129 1 0.199242 0.299814 0.00117411
130 1 0.247357 0.350093 0.00108096
131 1 0.246715 0.300652 0.0521075
132 1 0.199895 0.353069 0.0477342
133 1 0.301002 0.2998 0.999804
134 1 0.349987 0.350318 0.99829
135 1 0.351466 0.30118 0.0484656
136 1 0.298787 0.348928 0.0474102
137 1 0.401583 0.300365 0.000513553
138 1 0.450383 0.351795 0.000648121
139 1 0.451346 0.301129 0.0508427
140 1 0.399984 0.350432 0.0470179
141 1 0.499835 0.295203 0.999032
142 1 0.547938 0.349222 0.998454
143 1 0.55209 0.295757 0.0478777
144 1 0.501425 0.345349 0.0494284
145 1 0.602021 0.298137 0.00249584
146 1 0.651633 0.347341 4.7385e-05
147 1 0.651826 0.298725 0.0486026
148 1 0.60102 0.346408 0.0512728
149 1 0.70353 0.29636 0.998939
150 1 0.747973 0.349139 -0.000240162
151 1 0.75175 0.300698 0.0513228
152 1 0.70281 0.350678 0.0500271
153 1 0.800797 0.301643 0.999061
154 1 0.848189 0.349519 0.998006
155 1 0.852355 0.299916 0.0496368
156 1 0.802523 0.348631 0.0482701
157 1 0.902534 0.298949 0.00267898
158 1 0.947376 0.352152 0.000995309
159 1 0.951954 0.299135 0.0483862
160 1 0.896421 0.351385 0.0497944
161 1 0.000247963 0.400843 0.999584
162 1 0.0473162 0.452629 0.000914705
163 1 0.0468651 0.398023 0.0526656
164 1 0.998351 0.44922 0.0508203
165 1 0.0992874 0.398074 0.999931
166 1 0.147625 0.449004 0.00122147
167 1 0.145979 0.398509 0.0486557
168 1 0.0975254 0.452057 0.0469049
169 1 0.200806 0.401795 0.00102515
170 1 0.250201 0.448683 0.999353
171 1 0.252707 0.401574 0.0494631
172 1 0.200672 0.45188 0.0480591
173 1 0.299108 0.400725 0.996499
174 1 0.349154 0.447981 0.997347
175 1 0.349836 0.396418 0.0477616
176 1 0.303593 0.445438 0.048202
177 1 0.399022 0.398128 1
178 1 0.45037 0.447525 0.00252296
179 1 0.452897 0.400253 0.0534075
180 1 0.395156 0.44822 0.048964
181 1 0.499029 0.398252 0.996647
182 1 0.551338 0.446993 0.005026
183 1 0.552113 0.398861 0.0533977
184 1 0.498126 0.448339 0.0515847
185 1 0.602718 0.399457 0.999059
186 1 0.650306 0.448183 0.997635
187 1 0.650368 0.400642 0.0502282
188 1 0.602497 0.450396 0.054416
189 1 0.69646 0.398168 0.996585
190 1 0.751378 0.451564 0.999007
191 1 0.754264 0.398545 0.0492933
192 1 0.700719 0.449593 0.0450693
193 1 0.801264 0.398702 0.000965586
194 1 0.849233 0.45247 0.999161
195 1 0.851206 0.402574 0.0473459
196 1 0.800712 0.449703 0.0480918
197 1 0.903078 0.400016 0.997595
198 1 0.949751 0.448904 0.999161
199 1 0.951465 0.40297 0.0513647
200 1 0.901441 0.447128 0.0458212
201 1 0.997985 0.503239 0.999096
202 1 0.049562 0.547987 1.00091
203 1 0.0488103 0.500195 0.0494983
204 1 0.00119342 0.550986 0.049777
205 1 0.0980793 0.500789 0.00158567
206 1 0.153078 0.549748 0.999703
207 1 0.149531 0.502531 0.0501388
208 1 0.1021 0.547158 0.0514684
209 1 0.203047 0.49872 0.00157001
210 1 0.256383 0.551944 0.997748
211 1 0.251196 0.499424 0.051616
212 1 0.204234 0.551103 0.0484849
213 1 0.299727 0.500278 0.998528
214 1 0.35403 0.551186 0.996651
215 1 0.349586 0.498567 0.0464438
216 1 0.302297 0.547671 0.0526692
217 1 0.401678 0.496461 0.0010589
218 1 0.449822 0.550524 0.00219074
219 1 0.450251 0.496168 0.0513946
220 1 0.402973 0.54744 0.0486989
221 1 0.499458 0.502242 0.00577692
222 1 0.550039 0.551738 0.00183996
223 1 0.549063 0.499845 0.0534177
224 1 0.49879 0.55198 0.0530559
225 1 0.597951 0.500102 0.99786
226 1 0.646501 0.550733 0.998018
227 1 0.652087 0.499266 0.0479947
228 1 0.598452 0.547574 0.0523528
229 1 0.697803 0.501105 0.99852
230 1 0.74964 0.550634 0.00387711
231 1 0.751555 0.499527 0.0503572
232 1 0.697965 0.550133 0.0490804
233 1 0.797637 0.502713 0.0018352
234 1 0.852429 0.555478 0.00161936
235 1 0.84948 0.503275 0.049337
236 1 0.801314 0.550898 0.0513859
237 1 0.898072 0.500959 0.00260778
238 1 0.94841 0.550029 0.999199
239 1 0.950643 0.503558 0.050089
240 1 0.899105 0.551375 0.0513862
241 1 0.998402 0.599236 0.999745
242 1 0.0524491 0.649457 0.998627
243 1 0.0484925 0.601098 0.0490629
244 1 0.00027505 0.649547 0.051305
245 1 0.0999378 0.597051 0.00112612
246 1 0.152971 0.652614 0.999586
247 1 0.14795 0.598559 0.0535814
248 1 0.10463 0.651739 0.0513139
249 1 0.19985 0.605841 0.00103455
250 1 0.252259 0.650671 0.000325234
251 1 0.254073 0.598227 0.0469014
252 1 0.201417 0.650413 0.0496536
253 1 0.303898 0.600582 0.997249
254 1 0.352376 0.648088 0.00037045
255 1 0.352709 0.59761 0.0486323
256 1 0.302589 0.649756 0.0501641
257 1 0.40294 0.599721 0.99896
258 1 0.449248 0.648522 0.99741
259 1 0.452119 0.602203 0.0474723
260 1 0.402217 0.649634 0.0474819
261 1 0.499001 0.600719 0.9985
262 1 0.552323 0.649575 0.00162261
263 1 0.546314 0.599763 0.051121
264 1 0.501324 0.650471 0.0469739
265 1 0.60079 0.599633 0.998863
266 1 0.648516 0.649158 0.996004
267 1 0.648761 0.598003 0.0485897
268 1 0.599693 0.647314 0.0499456
269 1 0.699394 0.600624 0.998308
270 1 0.749724 0.655159 0.00173588
271 1 0.747521 0.6014 0.0482073
272 1 0.698999 0.65029 0.0517391
273 1 0.80128 0.600863 0.999405
274 1 0.851924 0.649596 0.00018049
275 1 0.852123 0.602064 0.0475535
276 1 0.80159 0.651437 0.0499349
277 1 0.901088 0.601832 0.998259
278 1 0.950296 0.64952 0.00267117
279 1 0.950949 0.603041 0.0509081
280 1 0.901308 0.648425 0.0495826
281 1 0.999389 0.69979 0.000375368
282 1 0.0497959 0.750274 0.999488
283 1 0.054059 0.701477 0.04805
284 1 2.58811e-05 0.747511 0.0516164
285 1 0.10306 0.702896 0.000587114
286 1 0.152574 0.753226 0.999357
287 1 0.152122 0.697542 0.050533
288 1 0.101636 0.749439 0.0499012
289 1 0.199861 0.701537 0.9995
290 1 0.249399 0.748674 0.999136
291 1 0.24995 0.699594 0.0469206
292 1 0.200385 0.749242 0.0527034
293 1 0.300643 0.701183 0.00214935
294 1 0.350787 0.75152 0.000217903
295 1 0.353335 0.699321 0.0498087
296 1 0.30182 0.750328 0.0524931
297 1 0.397499 0.699501 0.997787
298 1 0.4473 0.748882 0.999684
299 1 0.44955 0.699871 0.0484284
300 1 0.400315 0.750797 0.0508724
301 1 0.500888 0.699178 0.999396
302 1 0.549459 0.750578 0.00560711
303 1 0.550183 0.698021 0.0512027
304 1 0.496495 0.751591 0.0481042
305 1 0.600069 0.700158 0.00156939
306 1 0.650729 0.748787 0.00245134
307 1 0.651863 0.701482 0.0515145
308 1 0.601091 0.749183 0.0517727
309 1 0.697005 0.70205 0.00220587
310 1 0.748154 0.74974 0.0014042
311 1 0.747994 0.700674 0.0524409
312 1 0.699392 0.747497 0.053163
313 1 0.801311 0.700036 1.00014
314 1 0.852732 0.749285 0.993899
315 1 0.851002 0.701122 0.0459849
316 1 0.800947 0.752255 0.0483982
317 1 0.899401 0.700635 0.997645
318 1 0.952166 0.749562 0.00103292
319 1 0.951026 0.696358 0.0518548
320 1 0.900955 0.7485 0.0494114
321 1 0.00197262 0.798562 -0.000642771
322 1 0.0486909 0.849851 0.996517
323 1 0.0494917 0.799221 0.0484349
324 1 0.000534196 0.850747 0.0437271
325 1 0.0990181 0.797172 0.0013344
326 1 0.150096 0.845618 0.999512
327 1 0.150378 0.797718 0.0495173
328 1 0.0999334 0.850824 0.0487993
329 1 0.203239 0.800648 0.994553
330 1 0.253367 0.850264 0.998465
331 1 0.247081 0.799927 0.0491494
332 1 0.199701 0.851876 0.0468613
333 1 0.299167 0.79742 0.00158429
334 1 0.35042 0.849321 0.00347827
335 1 0.351835 0.802015 0.0528026
336 1 0.297651 0.851713 0.0506838
337 1 0.402016 0.800945 0.000280263
338 1 0.451895 0.850687 0.0013243
339 1 0.448905 0.797657 0.0497016
340 1 0.401077 0.851811 0.0490769
341 1 0.502748 0.80088 0.00113989
342 1 0.553027 0.849828 0.00412117
343 1 0.552766 0.798372 0.0509332
344 1 0.500912 0.851079 0.0521634
345 1 0.597957 0.796255 0.000700488
346 1 0.650303 0.849669 0.0062612
347 1 0.650457 0.798166 0.0519819
348 1 0.603259 0.847876 0.0529795
349 1 0.698816 0.801543 0.00317118
350 1 0.747427 0.848567 0.00310514
351 1 0.75089 0.802396 0.0499587
352 1 0.70087 0.85178 0.0538679
353 1 0.797456 0.799527 0.99976
354 1 0.848486 0.847503 0.999083
355 1 0.851107 0.801678 0.0457607
356 1 0.801596 0.852933 0.048146
357 1 0.901701 0.800951 0.999495
358 1 0.950233 0.851338 0.996242
359 1 0.952447 0.798109 0.0496859
360 1 0.900543 0.85097 0.0479817
361 1 0.999516 0.901527 0.997112
362 1 0.0535864 0.952111 0.997772
363 1 0.0529391 0.898804 0.0451844
364 1 0.999644 0.951407 0.0507917
365 1 0.101295 0.898943 0.999054
366 1 0.151204 0.946255 0.996767
367 1 0.150186 0.897311 0.048954
368 1 0.10097 0.949883 0.0478536
369 1 0.201268 0.900651 0.997979
370 1 0.249197 0.948007 0.997836
371 1 0.250204 0.89918 0.0494317
372 1 0.202548 0.9505 0.0511306
373 1 0.300905 0.901869 0.00324585
374 1 0.348806 0.949738 -0.000101504
375 1 0.351115 0.903787 0.0500214
376 1 0.298924 0.951379 0.0504224
377 1 0.399088 0.899372 0.998853
378 1 0.449785 0.952693 0.00230342
379 1 0.452909 0.901171 0.0525218
380 1 0.401512 0.946981 0.0535388
381 1 0.499533 0.899224 0.00306983
382 1 0.552995 0.949807 0.996612
383 1 0.551972 0.899905 0.0488645
384 1 0.502902 0.951544 0.0507599
385 1 0.60082 0.897019 0.00139626
386 1 0.650501 0.948085 0.0010512
387 1 0.649844 0.901446 0.053836
388 1 0.599499 0.948266 0.0506806
389 1 0.701783 0.902402 0.00156884
390 1 0.752157 0.949524 0.999124
391 1 0.751474 0.900503 0.0479458
392 1 0.702718 0.947178 0.0513921
393 1 0.800869 0.900857 0.998477
394 1 0.850998 0.9495 0.997573
395 1 0.850007 0.899857 0.0487681
396 1 0.802339 0.949716 0.0464358
397 1 0.899105 0.901453 0.998149
398 1 0.949814 0.953974 0.996658
399 1 0.9521 0.902184 0.0507282
400 1 0.901323 0.95004 0.0494633
401 1 0.000559138 0.0026782 0.0987311
402 1 0.0498556 0.0509747 0.103578
403 1 0.0544781 0.996223 0.147854
404 1 0.998469 0.0479143 0.149151
405 1 0.099507 0.999465 0.0991607
406 1 0.149074 0.0506238 0.0975184
407 1 0.1491 0.999095 0.147498
408 1 0.100109 0.050799 0.148823
409 1 0.200201 0.000373924 0.101584
410 1 0.248853 0.0473282 0.0995911
411 1 0.249949 -8.00655e-05 0.150482
412 1 0.19697 0.0487837 0.146535
413 1 0.298573 0.00158729 0.100593
414 1 0.345533 0.0496462 0.097571
415 1 0.353455 0.00159649 0.14895
416 1 0.302065 0.0475119 0.150243
417 1 0.395199 -0.000168469 0.0963416
418 1 0.448356 0.0503938 0.100905
419 1 0.448842 0.0022 0.150542
420 1 0.399474 0.0513395 0.151775
421 1 0.5011 0.998185 0.10254
422 1 0.549089 0.0487598 0.0994695
423 1 0.549835 0.000157446 0.153198
424 1 0.498449 0.052981 0.151495
425 1 0.602137 0.998769 0.101741
426 1 0.648102 0.0499072 0.100809
427 1 0.653049 0.000966078 0.150931
428 1 0.60218 0.0466106 0.150986
429 1 0.70226 0.998494 0.0985064
430 1 0.75244 0.052053 0.104135
431 1 0.747553 0.999435 0.149501
432 1 0.700152 0.0505541 0.147803
433 1 0.797658 1.00029 0.0930883
434 1 0.851148 0.0505339 0.0986783
435 1 0.851005 0.00105438 0.147674
436 1 0.801602 0.0497197 0.147329
437 1 0.901536 0.00119552 0.0963805
438 1 0.947903 0.0500774 0.0978506
439 1 0.950728 0.998706 0.147161
440 1 0.90256 0.0500018 0.148428
441 1 0.00017201 0.0987317 0.0993232
442 1 0.0447208 0.149382 0.101571
443 1 0.0476346 0.102337 0.149905
444 1 0.997216 0.151327 0.154634
445 1 0.0983544 0.101138 0.0996093
446 1 0.150007 0.147103 0.100507
447 1 0.149651 0.103107 0.150469
448 1 0.0969807 0.151532 0.150916
449 1 0.198878 0.100644 0.101376
450 1 0.245908 0.150223 0.0988945
451 1 0.249148 0.103172 0.151529
452 1 0.198809 0.151416 0.149122
453 1 0.299058 0.0984023 0.10119
454 1 0.348603 0.150577 0.0978352
455 1 0.351564 0.0988134 0.149034
456 1 0.298746 0.150799 0.150424
457 1 0.398467 0.0995055 0.0974587
458 1 0.452656 0.152737 0.102154
459 1 0.447904 0.101129 0.149715
460 1 0.401104 0.148563 0.150312
461 1 0.497362 0.103575 0.0994914
462 1 0.548782 0.149441 0.102236
463 1 0.553241 0.0982478 0.14848
464 1 0.50035 0.148298 0.15059
465 1 0.600627 0.0985264 0.1025
466 1 0.651256 0.150559 0.100173
467 1 0.65066 0.0987439 0.148869
468 1 0.599667 0.148391 0.150315
469 1 0.701564 0.0991723 0.102483
470 1 0.752291 0.148071 0.0982805
471 1 0.75133 0.10418 0.148976
472 1 0.700272 0.148997 0.146885
473 1 0.800963 0.101259 0.102266
474 1 0.851011 0.149277 0.102418
475 1 0.850404 0.10088 0.150913
476 1 0.801144 0.149995 0.151065
477 1 0.899471 0.100406 0.100886
478 1 0.948509 0.148672 0.101039
479 1 0.947158 0.102885 0.1515
480 1 0.901437 0.152462 0.152021
481 1 0.996287 0.197971 0.101697
482 1 0.0474146 0.252245 0.101365
483 1 0.0493859 0.201808 0.149764
484 1 0.996989 0.251182 0.150817
485 1 0.0986711 0.205382 0.100154
486 1 0.148783 0.251104 0.100923
487 1 0.149149 0.19733 0.148847
488 1 0.103314 0.250374 0.151187
489 1 0.197586 0.201107 0.0964892
490 1 0.24859 0.249134 0.0967371
491 1 0.248696 0.203743 0.149901
492 1 0.199077 0.24905 0.145888
493 1 0.299087 0.202505 0.100711
494 1 0.354539 0.250804 0.100707
495 1 0.350775 0.197879 0.149791
496 1 0.301157 0.250672 0.149892
497 1 0.401567 0.197432 0.105114
498 1 0.44996 0.249335 0.101135
499 1 0.450256 0.199815 0.152493
500 1 0.402825 0.248306 0.150409
501 1 0.500192 0.199962 0.101132
502 1 0.552824 0.24682 0.0986347
503 1 0.549551 0.19793 0.151615
504 1 0.498013 0.252459 0.150901
505 1 0.60249 0.19507 0.0996446
506 1 0.653326 0.252652 0.0996617
507 1 0.652474 0.200596 0.150834
508 1 0.60452 0.247839 0.148329
509 1 0.702366 0.198942 0.0983925
510 1 0.751566 0.251527 0.102232
511 1 0.750396 0.19681 0.150128
512 1 0.700537 0.24812 0.147176
513 1 0.800758 0.200488 0.101376
514 1 0.85246 0.252207 0.100398
515 1 0.854306 0.199949 0.150134
516 1 0.802629 0.253986 0.147572
517 1 0.90138 0.199562 0.0992487
518 1 0.950766 0.249314 0.100725
519 1 0.948614 0.202568 0.149761
520 1 0.901645 0.255304 0.151098
521 1 -5.33824e-05 0.2997 0.103644
522 1 0.051374 0.351937 0.100961
523 1 0.0470314 0.298611 0.151923
524 1 0.999204 0.352748 0.150135
525 1 0.0989071 0.302036 0.103918
526 1 0.14755 0.349077 0.0985322
527 1 0.147774 0.302231 0.152548
528 1 0.0986452 0.350005 0.154787
529 1 0.197419 0.298584 0.0999251
530 1 0.24417 0.354161 0.100651
531 1 0.247682 0.300167 0.148623
532 1 0.200881 0.350924 0.152338
533 1 0.295793 0.303298 0.0978872
534 1 0.351724 0.349017 0.0979429
535 1 0.349036 0.302741 0.151883
536 1 0.299956 0.348465 0.148559
537 1 0.403009 0.299792 0.09756
538 1 0.44989 0.349121 0.101737
539 1 0.450214 0.300991 0.14757
540 1 0.396763 0.350169 0.149702
541 1 0.50223 0.298484 0.0970818
542 1 0.546994 0.347846 0.0998143
543 1 0.549287 0.301368 0.150321
544 1 0.499685 0.350106 0.148369
545 1 0.602053 0.297703 0.100512
546 1 0.652214 0.349505 0.0976222
547 1 0.652638 0.298619 0.149105
548 1 0.599504 0.352373 0.14758
549 1 0.700165 0.300431 0.099445
550 1 0.754154 0.35132 0.0966966
551 1 0.755064 0.30337 0.149671
552 1 0.699212 0.350803 0.151695
553 1 0.80079 0.302533 0.0988078
554 1 0.851703 0.351617 0.102225
555 1 0.849727 0.303055 0.147194
556 1 0.80176 0.350445 0.149491
557 1 0.90204 0.299324 0.0986233
558 1 0.947049 0.351764 0.101547
559 1 0.950309 0.304015 0.15269
560 1 0.899828 0.351345 0.153202
561 1 0.00144526 0.399583 0.100859
562 1 0.0519758 0.450427 0.100459
563 1 0.0520762 0.403352 0.150054
564 1 0.000990072 0.450697 0.151039
565 1 0.101455 0.39999 0.100357
566 1 0.149888 0.44891 0.0984677
567 1 0.147031 0.400975 0.146859
568 1 0.101322 0.451241 0.150636
569 1 0.198541 0.402388 0.09876
570 1 0.252016 0.447292 0.099935
571 1 0.250677 0.399339 0.15063
572 1 0.200899 0.450862 0.152985
573 1 0.301461 0.396992 0.100699
574 1 0.349893 0.448108 0.10314
575 1 0.348475 0.400148 0.151913
576 1 0.298993 0.45028 0.153262
577 1 0.399904 0.398016 0.0996032
578 1 0.45162 0.446444 0.101788
579 1 0.444624 0.397105 0.149736
580 1 0.400871 0.449215 0.151595
581 1 0.501748 0.397984 0.10129
582 1 0.552373 0.451492 0.10269
583 1 0.551067 0.398333 0.147995
584 1 0.50181 0.448439 0.149919
585 1 0.599738 0.400227 0.0997786
586 1 0.6539 0.449487 0.1012
587 1 0.650031 0.400762 0.149627
588 1 0.599611 0.450666 0.151301
589 1 0.70256 0.398311 0.0992996
590 1 0.754224 0.448537 0.0986595
591 1 0.748186 0.399182 0.152071
592 1 0.701813 0.450307 0.148368
593 1 0.801816 0.400166 0.0972548
594 1 0.849351 0.452066 0.100869
595 1 0.849377 0.398677 0.152514
596 1 0.800062 0.448075 0.149091
597 1 0.900358 0.404411 0.100477
598 1 0.948555 0.4488 0.102501
599 1 0.947617 0.399426 0.152618
600 1 0.896281 0.451267 0.150227
601 1 8.54037e-05 0.49429 0.0980745
602 1 0.049651 0.549648 0.0966161
603 1 0.0497876 0.497056 0.150378
604 1 0.000999111 0.551203 0.152169
605 1 0.103781 0.497542 0.0976955
606 1 0.151914 0.549664 0.101321
607 1 0.151849 0.496701 0.149516
608 1 0.0983948 0.547742 0.145909
609 1 0.199032 0.497752 0.0993254
610 1 0.247621 0.55021 0.105816
611 1 0.249188 0.496892 0.150747
612 1 0.200668 0.547706 0.153409
613 1 0.298534 0.496634 0.101958
614 1 0.352052 0.546439 0.100991
615 1 0.348653 0.495321 0.149313
616 1 0.300482 0.549184 0.149687
617 1 0.403648 0.497489 0.100464
618 1 0.450182 0.549087 0.100599
619 1 0.451323 0.500013 0.149254
620 1 0.399364 0.548954 0.150031
621 1 0.497735 0.498276 0.0990675
622 1 0.551833 0.547967 0.103
623 1 0.54904 0.499743 0.149927
624 1 0.499705 0.547597 0.147747
625 1 0.60092 0.497982 0.0996121
626 1 0.651813 0.550439 0.100762
627 1 0.652023 0.499555 0.152343
628 1 0.600957 0.547195 0.150966
629 1 0.700512 0.500476 0.0964554
630 1 0.749526 0.549595 0.0965974
631 1 0.753211 0.498525 0.152205
632 1 0.699004 0.547031 0.150047
633 1 0.799555 0.50028 0.100224
634 1 0.848812 0.553059 0.10105
635 1 0.847365 0.50093 0.149711
636 1 0.799974 0.548216 0.149092
637 1 0.896327 0.505189 0.101916
638 1 0.947046 0.553224 0.100114
639 1 0.949938 0.504636 0.152864
640 1 0.897669 0.552393 0.153892
641 1 0.000188376 0.601844 0.100741
642 1 0.0531503 0.647407 0.0992001
643 1 0.0516723 0.595972 0.151397
644 1 0.00414109 0.647768 0.149445
645 1 0.10114 0.599937 0.101905
646 1 0.149845 0.647137 0.105611
647 1 0.151445 0.598706 0.150141
648 1 0.0979877 0.648292 0.152316
649 1 0.199414 0.598112 0.103008
650 1 0.249457 0.649806 0.09974
651 1 0.248068 0.600521 0.152601
652 1 0.203053 0.647121 0.148895
653 1 0.299258 0.600956 0.101676
654 1 0.348822 0.649673 0.101625
655 1 0.347389 0.59951 0.147205
656 1 0.297325 0.64789 0.148725
657 1 0.399083 0.599586 0.0977491
658 1 0.45037 0.648936 0.0986731
659 1 0.449293 0.598069 0.148764
660 1 0.399227 0.646091 0.14537
661 1 0.496804 0.600837 0.0978062
662 1 0.544894 0.647483 0.102939
663 1 0.550977 0.597517 0.152322
664 1 0.49796 0.64703 0.15054
665 1 0.599137 0.597093 0.102006
666 1 0.648171 0.649373 0.100597
667 1 0.650419 0.598366 0.148626
668 1 0.602086 0.650432 0.14804
669 1 0.701283 0.597563 0.0992717
670 1 0.753707 0.647802 0.09858
671 1 0.754648 0.60253 0.147112
672 1 0.700304 0.646715 0.149775
673 1 0.804657 0.602296 0.101406
674 1 0.848642 0.655282 0.104367
675 1 0.850944 0.605542 0.151928
676 1 0.80162 0.652209 0.151503
677 1 0.899888 0.600023 0.103173
678 1 0.947589 0.65322 0.100414
679 1 0.948124 0.59885 0.150387
680 1 0.900595 0.652916 0.150178
681 1 0.00289677 0.699072 0.0979733
682 1 0.0503602 0.746417 0.100622
683 1 0.0546236 0.699823 0.152942
684 1 0.999496 0.753506 0.150155
685 1 0.100606 0.699534 0.101562
686 1 0.150611 0.753037 0.0996614
687 1 0.152157 0.700425 0.151414
688 1 0.0977504 0.750083 0.148565
689 1 0.199499 0.699417 0.10197
690 1 0.248391 0.748235 0.100207
691 1 0.250745 0.697955 0.148717
692 1 0.199328 0.747872 0.148629
693 1 0.29703 0.696779 0.0996331
694 1 0.352691 0.748974 0.104354
695 1 0.346959 0.696034 0.15063
696 1 0.30027 0.74903 0.14814
697 1 0.402598 0.696311 0.100962
698 1 0.451645 0.751525 0.0998099
699 1 0.449732 0.696593 0.150547
700 1 0.399331 0.745526 0.150637
701 1 0.498759 0.701692 0.0984628
702 1 0.549759 0.750614 0.0958925
703 1 0.553452 0.696252 0.144176
704 1 0.501371 0.745546 0.152293
705 1 0.601819 0.697963 0.0999478
706 1 0.648929 0.750659 0.10056
707 1 0.650181 0.702544 0.15003
708 1 0.600182 0.748942 0.149911
709 1 0.700044 0.69823 0.104141
710 1 0.748991 0.751557 0.102205
711 1 0.753239 0.700597 0.150913
712 1 0.697096 0.752905 0.154355
713 1 0.800571 0.701785 0.0998878
714 1 0.847649 0.750855 0.0989399
715 1 0.850285 0.704878 0.152792
716 1 0.802249 0.75236 0.151958
717 1 0.896847 0.701775 0.100723
718 1 0.949513 0.753864 0.099159
719 1 0.950191 0.702687 0.150575
720 1 0.898882 0.752362 0.150764
721 1 0.00261336 0.799554 0.0977808
722 1 0.0517301 0.847996 0.0978426
723 1 0.0499503 0.802548 0.147771
724 1 0.997088 0.848711 0.14761
725 1 0.098533 0.7969 0.100276
726 1 0.151541 0.847257 0.0980374
727 1 0.149498 0.795907 0.151566
728 1 0.0969345 0.853078 0.148141
729 1 0.200329 0.80284 0.100515
730 1 0.248744 0.848935 0.0965935
731 1 0.250722 0.798382 0.1488
732 1 0.199007 0.852336 0.146232
733 1 0.301053 0.8015 0.0996883
734 1 0.350481 0.852232 0.0984788
735 1 0.348353 0.801381 0.148361
736 1 0.295433 0.850337 0.148468
737 1 0.400198 0.799541 0.101592
738 1 0.452519 0.852575 0.10467
739 1 0.450263 0.801407 0.151135
740 1 0.401026 0.852343 0.152062
741 1 0.50087 0.799626 0.10191
742 1 0.552955 0.847901 0.100829
743 1 0.553531 0.797827 0.150175
744 1 0.497472 0.848846 0.153235
745 1 0.602684 0.799963 0.100112
746 1 0.650397 0.848161 0.102575
747 1 0.646581 0.800889 0.150689
748 1 0.60016 0.848348 0.150362
749 1 0.698931 0.800571 0.100052
750 1 0.752802 0.846913 0.102386
751 1 0.751854 0.800247 0.150688
752 1 0.697693 0.851246 0.152901
753 1 0.801955 0.799315 0.0986981
754 1 0.850007 0.85291 0.0985874
755 1 0.849496 0.803091 0.153763
756 1 0.80116 0.848338 0.149342
757 1 0.8985 0.800789 0.0977291
758 1 0.948825 0.84535 0.0982618
759 1 0.948715 0.799692 0.149903
760 1 0.896537 0.852423 0.148815
761 1 0.999221 0.897596 0.0984069
762 1 0.0498878 0.95045 0.0967974
763 1 0.0476472 0.90044 0.150358
764 1 0.00164985 0.951639 0.145716
765 1 0.098034 0.902175 0.098069
766 1 0.150915 0.951835 0.100325
767 1 0.149262 0.898729 0.149561
768 1 0.101296 0.948478 0.146814
769 1 0.200971 0.900694 0.0968766
770 1 0.250758 0.950624 0.100745
771 1 0.250583 0.901884 0.147494
772 1 0.201671 0.946521 0.151112
773 1 0.298089 0.900421 0.0991521
774 1 0.347997 0.950505 0.100464
775 1 0.347584 0.895869 0.15152
776 1 0.299471 0.94756 0.150939
777 1 0.398897 0.8972 0.101577
778 1 0.449394 0.951119 0.103745
779 1 0.448129 0.899912 0.150533
780 1 0.400654 0.94966 0.153603
781 1 0.501706 0.901544 0.10139
782 1 0.551968 0.947691 0.101027
783 1 0.549784 0.898361 0.1484
784 1 0.500805 0.952433 0.153272
785 1 0.601135 0.900692 0.101755
786 1 0.651949 0.949913 0.105236
787 1 0.648782 0.901206 0.152088
788 1 0.60134 0.947919 0.150618
789 1 0.700848 0.897561 0.102926
790 1 0.748417 0.947234 0.100674
791 1 0.752848 0.900089 0.156097
792 1 0.701258 0.948839 0.1523
793 1 0.801351 0.900154 0.0991479
794 1 0.851115 0.951068 0.0989534
795 1 0.849364 0.900995 0.148734
796 1 0.797671 0.950268 0.149587
797 1 0.901054 0.899642 0.0981851
798 1 0.949157 0.950798 0.099565
799 1 0.95021 0.902687 0.148283
800 1 0.898681 0.94993 0.147951
801 1 0.00446425 0.99496 0.195735
802 1 0.0547862 0.0480614 0.197381
803 1 0.0460684 0.99803 0.250585
804 1 0.999861 0.0461908 0.248119
805 1 0.103921 0.999141 0.196601
806 1 0.149829 0.0494045 0.200061
807 1 0.149868 0.995293 0.245708
808 1 0.103339 0.0474419 0.250413
809 1 0.19503 0.999408 0.198391
810 1 0.249965 0.0503524 0.200059
811 1 0.250595 0.997641 0.250258
812 1 0.197379 0.0491431 0.250998
813 1 0.301435 0.00174566 0.198997
814 1 0.349687 0.051569 0.203614
815 1 0.344909 0.999883 0.254275
816 1 0.296309 0.0500468 0.253095
817 1 0.398894 0.997623 0.203103
818 1 0.449937 0.0497188 0.202949
819 1 0.447777 0.000451539 0.253263
820 1 0.397437 0.0520076 0.253992
821 1 0.497059 0.997673 0.199914
822 1 0.549757 0.0497337 0.197975
823 1 0.550398 0.999411 0.248682
824 1 0.499574 0.0514393 0.25086
825 1 0.604412 0.999823 0.201316
826 1 0.649035 0.0528803 0.196935
827 1 0.650204 0.00376743 0.248826
828 1 0.596392 0.048636 0.247555
829 1 0.70046 0.000722687 0.200802
830 1 0.751403 0.0519546 0.201125
831 1 0.750697 0.00080129 0.249268
832 1 0.696769 0.0512143 0.249565
833 1 0.800426 0.00190738 0.199067
834 1 0.850606 0.0490276 0.199314
835 1 0.848611 1.00027 0.247589
836 1 0.798055 0.0524121 0.25044
837 1 0.901615 0.00303285 0.199493
838 1 0.949354 0.0504081 0.197562
839 1 0.949829 0.999482 0.2518
840 1 0.899492 0.0512523 0.250888
841 1 0.999623 0.0993295 0.200894
842 1 0.0494756 0.149907 0.199926
843 1 0.0498407 0.0962402 0.245799
844 1 9.20831e-05 0.151712 0.244777
845 1 0.100386 0.101986 0.199842
846 1 0.147903 0.150858 0.19899
847 1 0.152731 0.0987497 0.246618
848 1 0.0964436 0.148831 0.25039
849 1 0.201902 0.104311 0.201334
850 1 0.247756 0.151546 0.204216
851 1 0.248639 0.0988017 0.250711
852 1 0.199929 0.15226 0.248847
853 1 0.304193 0.0987468 0.198387
854 1 0.351557 0.146746 0.201319
855 1 0.348138 0.0999269 0.25381
856 1 0.299967 0.150196 0.251412
857 1 0.399455 0.0995154 0.201273
858 1 0.450859 0.151322 0.199384
859 1 0.447542 0.0996365 0.247467
860 1 0.398947 0.145627 0.250409
861 1 0.498314 0.100836 0.197494
862 1 0.55124 0.148604 0.198967
863 1 0.547008 0.100116 0.250075
864 1 0.498393 0.150504 0.248082
865 1 0.601318 0.0980379 0.201317
866 1 0.648819 0.15029 0.200584
867 1 0.647106 0.099123 0.249142
868 1 0.598234 0.149401 0.250307
869 1 0.701115 0.0986525 0.198439
870 1 0.747645 0.151224 0.19887
871 1 0.748066 0.0983343 0.252119
872 1 0.700867 0.150053 0.248147
873 1 0.798022 0.102234 0.199452
874 1 0.850591 0.151753 0.201677
875 1 0.847772 0.102375 0.247373
876 1 0.797314 0.1531 0.247351
877 1 0.89677 0.100448 0.198305
878 1 0.948345 0.151948 0.199231
879 1 0.95004 0.0988018 0.247039
880 1 0.900056 0.152893 0.251993
881 1 0.997196 0.203016 0.199885
882 1 0.0501476 0.252657 0.20262
883 1 0.0537348 0.203929 0.254093
884 1 0.000498531 0.25125 0.250913
885 1 0.0988761 0.199493 0.201823
886 1 0.150799 0.250227 0.200966
887 1 0.150638 0.202101 0.252344
888 1 0.100763 0.250909 0.251486
889 1 0.195546 0.200968 0.198079
890 1 0.249267 0.248604 0.201874