ITEM: TIMESTEP
38300
ITEM: NUMBER OF ATOMS
4000
ITEM: BOX BOUNDS pp pp pp
0.0000000000000000e+00 1.6795961913825074e+01
0.0000000000000000e+00 1.6795961913825074e+01
0.0000000000000000e+00 1.6795961913825074e+01
ITEM: ATOMS id type xs ys zs
1 1 0.111945 0.0353784 0.959324
2 1 0.947257 0.125174 0.92128
3 1 0.994785 0.0290427 0.977315
4 1 0.249642 0.217586 0.163605
5 1 0.209485 0.941148 0.173872
6 1 0.31158 0.997125 0.0615067
7 1 0.285338 0.934102 0.786214
8 1 0.0640266 0.985202 0.15549
9 1 0.360861 0.971899 0.00360184
10 1 0.264042 0.119885 0.00185374
11 1 0.96263 0.903397 0.12929
12 1 0.272951 0.0891397 0.843997
13 1 0.379108 0.103984 0.192582
14 1 0.399235 0.0208094 0.87781
15 1 0.408883 0.289148 0.142581
16 1 0.152332 0.00241921 0.172057
17 1 0.435188 0.958965 0.871457
18 1 0.374441 0.954538 0.925786
19 1 0.512378 0.809737 0.145836
20 1 0.368578 0.120603 0.282743
21 1 0.445871 0.859424 0.173176
22 1 0.414245 0.140049 0.0725843
23 1 0.606128 0.989989 0.949245
24 1 0.711272 0.191215 0.769917
25 1 0.558881 0.797078 0.972682
26 1 0.587336 0.911466 0.0428109
27 1 0.531561 0.198405 0.221951
28 1 0.630902 0.986476 0.888832
29 1 0.624806 0.0212488 0.0761326
30 1 0.821364 0.905077 0.854722
31 1 0.769943 0.0159008 0.223139
32 1 0.704113 0.175673 0.16871
33 1 0.817307 0.860591 0.0390894
34 1 0.663176 0.108555 0.872612
35 1 0.660525 0.935575 0.163594
36 1 0.823766 0.108 0.91312
37 1 0.647446 0.0317902 0.96901
38 1 0.722922 0.984029 0.83273
39 1 0.95638 0.949761 0.915103
40 1 0.939662 0.83786 0.0370996
41 1 0.892769 0.144489 0.837565
42 1 0.0528693 0.899381 0.891827
43 1 0.99276 0.0481029 0.23571
44 1 0.0369354 0.00193618 0.215891
45 1 0.0327224 0.0387585 0.127047
46 1 0.397638 0.220619 0.120925
47 1 0.281196 0.961202 0.0157699
48 1 0.251324 0.375524 0.169313
49 1 0.0889569 0.912052 0.795086
50 1 0.360372 0.173206 0.253324
51 1 0.296648 0.908939 0.120741
52 1 0.0254203 0.30448 0.124293
53 1 0.148371 0.120258 0.913302
54 1 0.508695 0.963461 0.782866
55 1 0.539431 0.0873738 0.385434
56 1 0.420747 0.210051 0.0599702
57 1 0.560628 0.0152712 0.130134
58 1 0.574465 0.173427 0.0180278
59 1 0.298415 0.12398 0.096399
60 1 0.425673 0.0521293 0.997219
61 1 0.550653 0.173953 0.845814
62 1 0.54464 0.31015 0.235793
63 1 0.682445 0.00861264 0.0776859
64 1 0.469595 0.0151334 0.976918
65 1 0.589875 0.961299 0.72074
66 1 0.505888 0.0934126 0.0782001
67 1 0.468792 0.843726 0.113843
68 1 0.178973 0.0597248 0.170462
69 1 0.535495 0.0317555 0.954207
70 1 0.823681 0.174323 0.828932
71 1 0.725339 0.121023 0.126019
72 1 0.6055 0.151008 0.901604
73 1 0.816982 0.98243 0.953272
74 1 0.784846 0.135797 0.059094
75 1 0.697187 0.0937274 0.969219
76 1 0.622159 0.0828847 0.191085
77 1 0.739915 0.024452 0.16599
78 1 0.715006 0.0557898 0.291873
79 1 0.0635623 0.0591239 0.897387
80 1 0.609876 0.311299 0.15136
81 1 0.14716 0.219341 0.985164
82 1 0.857527 0.0591153 0.987543
83 1 0.978239 0.107493 0.992369
84 1 0.158386 0.381446 0.00709917
85 1 0.740513 0.167818 0.817231
86 1 0.517486 0.430783 0.958559
87 1 0.50281 0.365569 0.956887
88 1 0.20391 0.145853 0.887277
89 1 0.226516 0.205 0.0879269
90 1 0.0118486 0.231809 0.956065
91 1 0.0475645 0.14739 0.115555
92 1 0.279475 0.153575 0.930037
93 1 0.262911 0.261362 0.766674
94 1 0.262376 0.119956 0.781454
95 1 0.494752 0.0524291 0.19095
96 1 0.354171 0.262327 0.0843511
97 1 0.313706 0.0948819 0.92462
98 1 0.480746 0.996567 0.160111
99 1 0.255661 0.157293 0.214862
100 1 0.511051 0.179087 0.975643
101 1 0.545995 0.0579935 0.857611
102 1 0.395716 0.1058 0.986145
103 1 0.787691 0.348245 0.0145862
104 1 0.606591 0.268099 0.985
105 1 0.433003 0.935092 0.186878
106 1 0.595234 0.140516 0.670077
107 1 0.666048 0.944025 0.0720887
108 1 0.519285 0.212824 0.160751
109 1 0.884782 0.80538 0.892764
110 1 0.831207 0.501519 0.0121856
111 1 0.849402 0.323892 0.0445833
112 1 0.827239 0.183796 0.0428813
113 1 0.925556 0.0723423 0.0955976
114 1 0.57189 0.305385 0.084131
115 1 0.774404 0.0856619 0.115424
116 1 0.724787 0.330169 0.0321502
117 1 0.0188324 0.168415 0.064439
118 1 0.756608 0.0527738 0.93147
119 1 0.931885 0.206013 0.285249
120 1 0.878134 0.129891 0.148353
121 1 0.0940151 0.447745 0.958827
122 1 0.218539 0.31847 0.91099
123 1 0.889459 0.205819 0.952231
124 1 0.228457 0.527718 0.980733
125 1 0.168633 0.17459 0.94589
126 1 0.175134 0.40633 0.0636202
127 1 0.0774355 0.385169 0.769437
128 1 0.212245 0.395553 0.965446
129 1 0.520476 0.128577 0.878702
130 1 0.575177 0.217521 0.955433
131 1 0.136235 0.299352 0.810473
132 1 0.440051 0.297277 0.986292
133 1 0.192573 0.26163 0.311165
134 1 0.422127 0.405613 0.838155
135 1 0.37062 0.434399 1.00014
136 1 0.413483 0.202742 0.223896
137 1 0.355951 0.276264 0.0209026
138 1 0.455448 0.0991577 0.0404506
139 1 0.6052 0.420379 0.13586
140 1 0.338759 0.330149 0.059962
141 1 0.550803 0.249933 0.881667
142 1 0.76401 0.369836 0.876828
143 1 0.51921 0.231597 0.943968
144 1 0.585676 0.124985 0.348452
145 1 0.826217 0.172256 0.903515
146 1 0.709616 0.394032 0.967832
147 1 0.554099 0.299056 0.173846
148 1 0.498963 0.313724 0.934174
149 1 0.739114 0.220591 0.971419
150 1 0.71893 0.411651 0.108141
151 1 0.861117 0.208672 0.174228
152 1 0.796393 0.319675 0.895958
153 1 0.859504 0.29024 0.967167
154 1 0.880729 0.353359 0.923616
155 1 0.854291 0.399684 0.962997
156 1 0.887458 0.469953 0.97631
157 1 0.0577272 0.482985 0.998877
158 1 0.186935 0.372158 0.89061
159 1 0.0343913 0.230078 0.0948114
160 1 0.80046 0.421577 0.0645392
161 1 0.965792 0.29695 0.160096
162 1 0.143013 0.53916 0.0547424
163 1 0.0625786 0.524112 0.102335
164 1 0.136593 0.419579 0.115136
165 1 0.185895 0.438064 0.010858
166 1 0.104716 0.554975 0.99664
167 1 0.0630029 0.363851 0.251555
168 1 0.0495314 0.499353 0.914274
169 1 0.229298 0.49856 0.923538
170 1 0.157303 0.487649 0.171114
171 1 0.385942 0.26775 0.886072
172 1 0.0942385 0.328542 0.210566
173 1 0.35156 0.307886 0.932632
174 1 0.270009 0.542736 0.107633
175 1 0.269352 0.440902 0.080272
176 1 0.213073 0.223999 0.971902
177 1 0.627585 0.4207 0.883755
178 1 0.54151 0.556569 0.119871
179 1 0.462652 0.253102 0.931816
180 1 0.242698 0.509386 0.0527459
181 1 0.548109 0.456259 0.0041259
182 1 0.696157 0.187619 0.0436967
183 1 0.574196 0.361237 0.111746
184 1 0.348064 0.498892 0.99345
185 1 0.516067 0.497051 0.934936
186 1 0.737215 0.498719 0.136608
187 1 0.454745 0.359703 0.808036
188 1 0.460758 0.135034 0.978387
189 1 0.622 0.218731 0.0149557
190 1 0.815243 0.253219 0.0704214
191 1 0.681168 0.371551 0.0805075
192 1 0.735194 0.545401 0.18237
193 1 0.609691 0.236048 0.103545
194 1 0.982866 0.330956 0.0841698
195 1 0.892544 0.509942 0.208538
196 1 0.905508 0.332538 0.977095
197 1 0.835903 0.372498 0.148034
198 1 0.0771839 0.417107 0.097649
199 1 0.134973 0.327499 0.973907
200 1 0.82655 0.62107 0.788928
201 1 0.194696 0.477081 0.118209
202 1 0.116102 0.820636 0.0759964
203 1 0.00284883 0.648536 0.83031
204 1 0.913424 0.712074 0.770023
205 1 0.26554 0.653677 0.767097
206 1 0.0942226 0.846131 0.991118
207 1 0.0311863 0.623011 0.742115
208 1 0.159077 0.437641 0.872274
209 1 0.338931 0.363256 0.249576
210 1 0.212676 0.610367 0.874155
211 1 0.297295 0.331165 0.17839
212 1 0.150976 0.846485 0.031538
213 1 0.0222547 0.339655 0.0321336
214 1 0.322829 0.60687 0.93343
215 1 0.371233 0.4066 0.886452
216 1 0.307729 0.457144 0.03145
217 1 0.312351 0.489615 0.100436
218 1 0.503613 0.593368 0.0711262
219 1 0.167405 0.59441 0.241965
220 1 0.129263 0.634791 0.290771
221 1 0.6033 0.500433 0.980956
222 1 0.681879 0.415317 0.16287
223 1 0.673707 0.524107 0.136451
224 1 0.529963 0.525703 0.0667973
225 1 0.449621 0.662502 0.899038
226 1 0.912118 0.338922 0.0552129
227 1 0.450651 0.539233 0.0240359
228 1 0.582746 0.688091 0.0624965
229 1 0.113499 0.734637 0.00636226
230 1 0.947081 0.532987 0.908351
231 1 0.77786 0.598005 0.0693938
232 1 0.613361 0.495083 0.230366
233 1 0.945994 0.490221 0.0792536
234 1 0.903828 0.532394 0.970806
235 1 0.0295315 0.408888 0.0413163
236 1 0.97864 0.601355 0.0509389
237 1 0.950195 0.291192 0.223093
238 1 0.899799 0.495241 0.0296528
239 1 0.940412 0.357422 0.190044
240 1 0.894691 0.407986 0.162692
241 1 0.727003 0.79609 0.0961374
242 1 0.0947188 0.799648 0.771072
243 1 0.00886195 0.617583 0.158085
244 1 0.0830785 0.770738 0.8985
245 1 0.116998 0.799636 0.955745
246 1 0.25295 0.622319 0.924615
247 1 0.996207 0.508034 0.946257
248 1 0.996885 0.515702 0.0393388
249 1 0.258935 0.869087 0.105654
250 1 0.276021 0.739433 0.998773
251 1 0.239145 0.695015 0.962296
252 1 0.523545 0.787546 0.841395
253 1 0.262461 0.669379 0.00788802
254 1 0.344584 0.625401 0.130862
255 1 0.48949 0.408635 0.0710596
256 1 0.480318 0.687428 0.00318933
257 1 0.270669 0.50434 0.190268
258 1 0.30591 0.769777 0.724699
259 1 0.30111 0.519338 0.0433788
260 1 0.387042 0.571691 0.154486
261 1 0.557188 0.542222 0.853854
262 1 0.735479 0.606836 0.164838
263 1 0.558531 0.480962 0.204379
264 1 0.397066 0.637953 0.0843209
265 1 0.512424 0.562588 0.0198982
266 1 0.862756 0.685613 0.0213162
267 1 0.670598 0.594962 0.13451
268 1 0.720659 0.460452 0.278836
269 1 0.83288 0.528742 0.135484
270 1 0.861657 0.480801 0.165734
271 1 0.839968 0.56391 0.297131
272 1 0.861617 0.613961 0.914214
273 1 0.0609794 0.556125 0.900862
274 1 0.71765 0.889716 0.913358
275 1 0.76859 0.520352 0.0764794
276 1 0.582476 0.494506 0.0583666
277 1 0.8226 0.545118 0.0617984
278 1 0.790412 0.692537 0.810329
279 1 0.633332 0.632153 0.0112241
280 1 0.758237 0.615171 0.947562
281 1 0.944957 0.730395 0.0787129
282 1 0.0332876 0.114827 0.0427501
283 1 0.00312791 0.745908 0.0694121
284 1 0.977872 0.944118 0.741234
285 1 0.971364 0.771747 0.132452
286 1 0.29201 0.758374 0.0872004
287 1 0.27724 0.76928 0.914385
288 1 0.153121 0.626054 0.8998
289 1 0.382149 0.909551 0.960939
290 1 0.401202 0.919601 0.754261
291 1 0.32586 0.916067 0.993426
292 1 0.450597 0.685243 0.0608379
293 1 0.342792 0.67316 0.173325
294 1 0.469235 0.650878 0.73448
295 1 0.271998 0.770981 0.148143
296 1 0.318505 0.724049 0.147825
297 1 0.642661 0.706407 0.0760423
298 1 0.413 0.704426 0.978472
299 1 0.386434 0.561659 0.723424
300 1 0.273274 0.0249077 0.882566
301 1 0.372194 0.693295 0.0434098
302 1 0.588066 0.749668 0.0744688
303 1 0.741724 0.75154 0.22951
304 1 0.438714 0.792018 0.00408718
305 1 0.421062 0.526817 0.947086
306 1 0.517084 0.593695 0.691793
307 1 0.692023 0.857364 0.992115
308 1 0.491595 0.627184 0.0150915
309 1 0.75833 0.528282 0.0150926
310 1 0.76024 0.956738 0.00409118
311 1 0.999243 0.555193 0.28983
312 1 0.560992 0.707471 0.172322
313 1 0.676803 0.451551 0.981863
314 1 0.823317 0.756194 0.996384
315 1 0.779759 0.903621 0.133147
316 1 0.691905 0.663076 0.164119
317 1 0.911916 0.686974 0.0522844
318 1 0.840499 0.689389 0.964791
319 1 0.0477243 0.463043 0.0629792
320 1 0.786878 0.799066 0.0290577
321 1 0.12775 0.963805 0.828671
322 1 0.759208 0.958335 0.873024
323 1 0.151548 0.710711 0.0583551
324 1 0.0470019 0.872146 0.9633
325 1 0.0816757 0.716104 0.912142
326 1 0.934964 0.640841 0.893337
327 1 0.9815 0.691777 0.0426124
328 1 0.208117 0.868287 0.07051
329 1 0.0412301 0.796751 0.961973
330 1 0.458057 0.878692 0.0102431
331 1 0.393893 0.817337 0.918376
332 1 0.167115 0.871751 0.243508
333 1 0.319999 0.990029 0.877377
334 1 0.401139 0.75317 0.895558
335 1 0.53172 0.761898 0.195447
336 1 0.176973 0.813012 0.0833793
337 1 0.325602 0.809379 0.895991
338 1 0.311518 0.848024 1.00039
339 1 0.478251 0.708118 0.559569
340 1 0.263502 0.00458523 0.0882454
341 1 0.675917 0.702937 0.860552
342 1 0.554094 0.914795 0.187339
343 1 0.507005 0.877289 0.0608421
344 1 0.426692 0.785394 0.0835446
345 1 0.566543 0.399712 0.985188
346 1 0.592706 0.0656303 0.940864
347 1 0.463588 0.374608 0.120103
348 1 0.561177 0.848525 0.155193
349 1 0.460244 0.753127 0.129222
350 1 0.619196 0.921578 0.919783
351 1 0.803749 0.650648 0.0733485
352 1 0.838268 0.953167 0.145062
353 1 0.736813 0.899545 0.854524
354 1 0.745864 0.678123 0.977148
355 1 0.66547 0.80917 0.0845934
356 1 0.607876 0.898986 0.152526
357 1 0.706499 0.718055 0.00407951
358 1 0.961645 0.833548 0.975111
359 1 0.851467 0.73214 0.123136
360 1 0.84353 0.969572 0.0824048
361 1 0.255916 0.775392 0.0441832
362 1 0.238049 0.707539 0.773064
363 1 0.0203655 0.92831 0.152462
364 1 0.250798 0.937303 0.908418
365 1 0.919876 0.0152672 0.931148
366 1 0.171071 0.921048 0.963757
367 1 0.059109 0.0705856 0.246236
368 1 0.288154 0.0130428 0.338357
369 1 0.357408 0.130836 0.0871283
370 1 0.297128 0.380561 0.0596393
371 1 0.294957 0.187666 0.0703508
372 1 0.0136599 0.860803 0.0877299
373 1 0.407031 0.141628 0.835355
374 1 0.102919 0.88892 0.852539
375 1 0.526702 0.679814 0.11639
376 1 0.328567 0.873316 0.0638619
377 1 0.354862 0.730426 0.975788
378 1 0.435163 0.889545 0.0786011
379 1 0.460414 0.983628 0.277329
380 1 0.36261 0.812873 0.0563871
381 1 0.495505 0.929317 0.107646
382 1 0.602092 0.15606 0.283284
383 1 0.682892 0.143503 0.22331
384 1 0.522695 0.980172 0.36536
385 1 0.616786 0.123106 0.131731
386 1 0.675373 0.047314 0.0316054
387 1 0.542604 0.944544 0.943959
388 1 0.499633 0.0229298 0.0956381
389 1 0.697131 0.133127 0.796107
390 1 0.97388 0.974336 0.965843
391 1 0.596908 0.868929 0.206167
392 1 0.669112 0.858871 0.200814
393 1 0.780087 0.919739 0.579762
394 1 0.94921 0.915953 0.97891
395 1 0.519383 0.660744 0.0609032
396 1 0.779432 0.171745 0.871877
397 1 0.195731 0.183328 0.0339439
398 1 0.150869 0.797543 0.892581
399 1 0.18419 0.259183 0.0218244
400 1 0.806711 0.994587 0.0426242
401 1 0.823697 0.100816 0.0231631
402 1 0.308107 0.194576 0.203038
403 1 0.163739 0.0507123 0.103351
404 1 0.734194 0.975795 0.0673857
405 1 0.290647 0.263459 0.189657
406 1 0.29408 0.236773 0.116213
407 1 0.26756 0.0422136 0.171583
408 1 0.546193 0.134478 0.250417
409 1 0.123417 0.106903 0.117004
410 1 0.219549 0.0023152 0.183549
411 1 0.09935 0.992771 0.257626
412 1 0.495289 0.931745 0.169301
413 1 0.203119 0.0175033 0.0679322
414 1 0.414084 0.910218 0.135551
415 1 0.394744 0.948827 0.0743536
416 1 0.402225 0.0469448 0.176258
417 1 0.609978 0.808641 0.0319914
418 1 0.393199 0.13092 0.35211
419 1 0.36361 0.181251 0.335297
420 1 0.318295 0.0986754 0.159515
421 1 0.313153 0.996451 0.175763
422 1 0.615581 0.800415 0.245977
423 1 0.780408 0.79023 0.198411
424 1 0.436684 0.0165998 0.396583
425 1 0.454157 0.955497 0.389186
426 1 0.6538 0.896424 0.258398
427 1 0.751244 0.864084 0.968623
428 1 0.482626 0.0455894 0.811742
429 1 0.764776 0.238836 0.0934329
430 1 0.792051 0.0303246 0.990649
431 1 0.721294 0.921214 0.0399734
432 1 0.561571 0.0963072 0.194525
433 1 0.85862 0.913765 0.0332805
434 1 0.00588573 0.976919 0.274387
435 1 0.693524 0.0475186 0.132066
436 1 0.775706 0.0575859 0.282416
437 1 0.882173 0.00229656 0.982124
438 1 0.601767 0.101663 0.859495
439 1 0.913538 0.027896 0.861362
440 1 0.703992 0.978275 0.123999
441 1 0.947301 0.0577692 0.959799
442 1 0.0793214 0.159957 0.0607054
443 1 0.0113005 0.150167 0.165361
444 1 0.970283 0.107245 0.202871
445 1 0.162164 0.000162923 0.923154
446 1 0.978917 0.194947 0.108764
447 1 0.897337 0.0700544 0.205119
448 1 0.370358 0.908411 0.231938
449 1 0.13479 0.332898 0.417009
450 1 0.0866164 0.169079 0.227339
451 1 0.419729 0.983993 0.0200141
452 1 0.169319 0.997559 0.29512
453 1 0.353986 0.189821 0.960068
454 1 0.44319 0.447192 0.0425504
455 1 0.44211 0.837784 0.242614
456 1 0.281111 0.402929 0.997368
457 1 0.316723 0.138973 0.210308
458 1 0.496615 0.113665 0.210233
459 1 0.745324 0.136693 0.206691
460 1 0.444987 0.158711 0.887138
461 1 0.559111 0.810615 0.215959
462 1 0.251855 0.0470049 0.298395
463 1 0.441131 0.849796 0.365265
464 1 0.627985 0.104891 0.435956
465 1 0.523436 0.0643916 0.128567
466 1 0.756816 0.112223 0.916883
467 1 0.560785 0.0553387 0.0787893
468 1 0.631095 0.286401 0.321892
469 1 0.809048 0.32278 0.964879
470 1 0.555075 0.950117 0.254457
471 1 0.821606 0.0111759 0.130705
472 1 0.640661 0.0531733 0.892355
473 1 0.813566 0.137752 0.234333
474 1 0.136789 0.257544 0.857015
475 1 0.941052 0.16576 0.810698
476 1 0.787127 0.182755 0.10535
477 1 0.70032 0.855091 0.0860347
478 1 0.959637 0.306578 0.978837
479 1 0.884576 0.057532 0.141576
480 1 0.762451 0.956895 0.17026
481 1 0.0755786 0.223569 0.881143
482 1 0.169577 0.345744 0.0501235
483 1 0.147991 0.154206 0.151939
484 1 0.971261 0.225133 0.177403
485 1 0.188079 0.117192 0.109125
486 1 0.144647 0.425781 0.178087
487 1 0.386747 0.580955 0.0902417
488 1 0.876987 0.154846 0.0281957
489 1 0.0532401 0.171502 0.005001
490 1 0.235515 0.349309 0.277572
491 1 0.356823 0.191426 0.083712
492 1 0.212745 0.311096 0.0382172
493 1 0.195114 0.192785 0.792116
494 1 0.311956 0.978826 0.121871
495 1 0.423562 0.228641 0.434413
496 1 0.431973 0.462646 0.111926
497 1 0.321966 0.924392 0.837213
498 1 0.285524 0.0234056 0.226144
499 1 0.197395 0.215029 0.258089
500 1 0.284981 0.986001 0.825738
501 1 0.491947 0.180681 0.357404
502 1 0.508598 0.126464 0.152082
503 1 0.712226 0.279112 0.32181
504 1 0.536681 0.413267 0.129419
505 1 0.492358 0.0297733 0.913855
506 1 0.802049 0.369238 0.232163
507 1 0.562642 0.0174377 0.24666
508 1 0.574344 0.11691 0.966289
509 1 0.729116 0.147153 0.0701711
510 1 0.835766 0.914619 0.101521
511 1 0.525493 0.0747709 0.245281
512 1 0.761084 0.328557 0.506627
513 1 0.608339 0.391036 0.389408
514 1 0.864956 0.450562 0.0486655
515 1 0.794445 0.283491 0.129585
516 1 0.797903 0.205004 0.991945
517 1 0.141274 0.126537 0.0651221
518 1 0.915869 0.945756 0.134869
519 1 0.792141 0.185307 0.267207
520 1 0.931222 0.330386 0.119925
521 1 0.309011 0.298697 0.99408
522 1 0.178412 0.300765 0.110922
523 1 0.816359 0.13349 0.13558
524 1 0.054064 0.36722 0.136913
525 1 0.0183879 0.284819 0.00400536
526 1 0.391671 0.328741 1.00029
527 1 0.0392605 0.207309 0.194739
528 1 0.23197 0.25036 0.908315
529 1 0.371863 0.191951 0.174549
530 1 0.274472 0.309825 0.0550196
531 1 0.275561 0.540501 0.248803
532 1 0.146599 0.413996 0.950581
533 1 0.3147 0.263429 0.908022
534 1 0.232588 0.664586 0.883853
535 1 0.587531 0.570904 0.0754897
536 1 0.423438 0.419245 0.218821
537 1 0.403849 0.35641 0.116514
538 1 0.65782 0.270039 0.121712
539 1 0.389961 0.275838 0.199531
540 1 0.479955 0.431492 0.207156
541 1 0.470715 0.23416 0.990919
542 1 0.586365 0.140993 0.413246
543 1 0.477508 0.068266 0.421981
544 1 0.510031 0.337523 0.724282
545 1 0.53582 0.196789 0.0797494
546 1 0.511656 0.279643 0.98631
547 1 0.564436 0.249521 0.21758
548 1 0.815169 0.455085 0.970213
549 1 0.88561 0.0206562 0.0965484
550 1 0.909384 0.241411 0.199289
551 1 0.678845 0.331609 0.975691
552 1 0.758753 0.183765 0.1699
553 1 0.851345 0.237078 0.995135
554 1 0.840279 0.427721 0.121209
555 1 0.904328 0.338686 0.243142
556 1 0.772294 0.194789 0.366003
557 1 0.017476 0.3245 0.961946
558 1 0.913001 0.259158 0.954191
559 1 0.747298 0.114023 0.272741
560 1 0.94984 0.167174 0.166739
561 1 0.0422997 0.255147 0.265178
562 1 0.825653 0.47872 0.0863409
563 1 0.943587 0.398335 0.133296
564 1 0.991526 0.23794 0.0440728
565 1 0.287421 0.493567 0.98494
566 1 0.00960283 0.627363 0.957956
567 1 0.105136 0.26163 0.11207
568 1 0.0826629 0.525185 0.203586
569 1 0.115877 0.342103 0.269156
570 1 0.0250331 0.418089 0.152991
571 1 0.259854 0.344901 0.987379
572 1 0.0860332 0.523311 0.0474012
573 1 0.319477 0.361646 0.95541
574 1 0.970016 0.591121 0.865537
575 1 0.523514 0.274533 0.057306
576 1 0.250368 0.447774 0.970516
577 1 0.413693 0.395483 0.0218934
578 1 0.439384 0.0421368 0.767211
579 1 0.536946 0.452594 0.875886
580 1 0.260946 0.658301 0.0745022
581 1 0.582589 0.248599 0.0520368
582 1 0.483807 0.447505 0.145236
583 1 0.694796 0.51293 0.963664
584 1 0.453113 0.26907 0.0435437
585 1 0.634935 0.40645 0.0658536
586 1 0.756172 0.459344 0.0834689
587 1 0.398383 0.310701 0.0607881
588 1 0.325298 0.481178 0.181657
589 1 0.61047 0.177275 0.0849958
590 1 0.723334 0.334229 0.210661
591 1 0.728041 0.375178 0.158473
592 1 0.618333 0.432623 0.00203644
593 1 0.819748 0.244416 0.209817
594 1 0.866608 0.295777 0.220124
595 1 0.668262 0.150604 0.109979
596 1 0.890008 0.132356 0.21002
597 1 0.914037 0.434801 0.0235871
598 1 0.760163 0.647476 0.0270766
599 1 0.825988 0.240272 0.377356
600 1 0.872605 0.573627 0.228875
601 1 0.0892136 0.439991 0.15392
602 1 0.00132991 0.52124 0.102442
603 1 0.0361168 0.334631 0.191564
604 1 0.073978 0.758277 0.0673461
605 1 0.0731377 0.22171 0.976231
606 1 0.191121 0.55803 0.0874161
607 1 0.962752 0.533659 0.990612
608 1 0.230946 0.684871 0.12424
609 1 0.328416 0.427532 0.0913495
610 1 0.230086 0.607615 0.106734
611 1 0.219468 0.730733 0.167649
612 1 0.151764 0.585482 0.0141447
613 1 0.112746 0.478848 0.0934551
614 1 0.271379 0.567773 0.30296
615 1 0.122223 0.369883 0.0770349
616 1 0.380084 0.645779 0.215367
617 1 0.489881 0.401117 0.0105448
618 1 0.499074 0.327448 0.0179391
619 1 0.436602 0.587041 0.124792
620 1 0.244172 0.459734 0.0278472
621 1 0.441759 0.599657 0.0451278
622 1 0.672746 0.559307 0.187189
623 1 0.740402 0.444813 0.980933
624 1 0.346338 0.315685 0.118922
625 1 0.561594 0.555075 0.947745
626 1 0.763038 0.362473 0.0828456
627 1 0.630544 0.32275 0.0900658
628 1 0.567981 0.382578 0.24698
629 1 0.587463 0.636204 0.0985677
630 1 0.657223 0.653112 0.112723
631 1 0.879986 0.553681 0.0435049
632 1 0.80864 0.497174 0.315149
633 1 0.912563 0.533015 0.389702
634 1 0.93886 0.477267 0.238464
635 1 0.779108 0.474367 0.0277713
636 1 0.85638 0.673465 0.0981549
637 1 0.787955 0.459932 0.138048
638 1 0.731368 0.639004 0.0998657
639 1 0.12568 0.431095 0.0471799
640 1 0.978885 0.444721 0.120159
641 1 0.0415073 0.530711 0.161785
642 1 0.114944 0.65122 0.229469
643 1 0.203 0.896637 0.0157954
644 1 0.262214 0.715647 0.28928
645 1 0.997596 0.581567 0.995478
646 1 0.403878 0.643184 0.0161344
647 1 0.191258 0.79439 0.194777
648 1 0.119602 0.709884 0.250056
649 1 0.1299 0.621198 0.964935
650 1 0.0721052 0.997035 0.0948542
651 1 0.265678 0.576277 0.992514
652 1 0.264369 0.715492 0.0528859
653 1 0.183307 0.590159 0.944542
654 1 0.08627 0.533853 0.36389
655 1 0.249237 0.624884 0.332435
656 1 0.378976 0.554037 0.0189547
657 1 0.260689 0.904457 0.975957
658 1 0.478329 0.642659 0.148418
659 1 0.403141 0.513898 0.256431
660 1 0.458769 0.746455 0.0389092
661 1 0.511319 0.507966 0.124665
662 1 0.551256 0.610492 0.0452164
663 1 0.493226 0.785093 0.244307
664 1 0.543348 0.448781 0.0734176
665 1 0.589617 0.701206 0.119882
666 1 0.806979 0.751426 0.368057
667 1 0.559123 0.618231 0.301967
668 1 0.794967 0.579247 0.178652
669 1 0.582877 0.657438 0.156707
670 1 0.703642 0.668673 0.0552436
671 1 0.820016 0.429091 0.188187
672 1 0.832563 0.521049 0.209097
673 1 0.78918 0.565776 0.12088
674 1 0.94083 0.577035 0.312899
675 1 0.106249 0.661835 0.885591
676 1 0.858334 0.580826 0.157431
677 1 0.626907 0.607322 0.181221
678 1 0.947713 0.594282 0.131311
679 1 0.894475 0.570854 0.102623
680 1 0.0455146 0.472192 0.192532
681 1 0.305722 0.834035 0.155968
682 1 0.0523644 0.819244 0.0762385
683 1 0.081458 0.67158 0.0604192
684 1 0.844231 0.827695 0.204495
685 1 0.0999568 0.943487 0.0694109
686 1 0.122287 0.649103 0.827625
687 1 0.199752 0.983746 0.118764
688 1 0.353062 0.744421 0.0731222
689 1 0.333926 0.639171 0.063463
690 1 0.355137 0.883253 0.13554
691 1 0.410825 0.885031 0.269452
692 1 0.195071 0.826437 0.308904
693 1 0.365308 0.692442 0.109019
694 1 0.643992 0.759375 0.108581
695 1 0.445263 0.597522 0.31306
696 1 0.547157 0.706608 0.228677
697 1 0.584022 0.563056 0.00840704
698 1 0.363962 0.638682 0.80518
699 1 0.399822 0.55162 0.322228
700 1 0.53893 0.803436 0.391741
701 1 0.547407 0.850725 0.0181802
702 1 0.660529 0.706728 0.954731
703 1 0.614579 0.606236 0.946364
704 1 0.253045 0.87844 0.16429
705 1 0.420252 0.504619 0.0701633
706 1 0.631055 0.701634 0.164761
707 1 0.74065 0.737199 0.395654
708 1 0.871075 0.767255 0.352195
709 1 0.601376 0.583676 0.131958
710 1 0.791832 0.757873 0.120386
711 1 0.600017 0.523779 0.12091
712 1 0.823088 0.716442 0.0716478
713 1 0.703861 0.741742 0.93596
714 1 0.0977398 0.787928 0.127574
715 1 0.891393 0.630855 0.125896
716 1 0.903874 0.450001 0.110075
717 1 0.780724 0.623657 0.127365
718 1 0.889504 0.625804 0.061429
719 1 0.147616 0.754438 0.287545
720 1 0.802766 0.835691 0.160001
721 1 0.0829799 0.877211 0.0590743
722 1 0.139975 0.763333 0.0809504
723 1 0.232208 0.816326 0.152042
724 1 0.021445 0.639885 0.0876463
725 1 0.00560273 0.0857545 0.943479
726 1 0.25623 0.206215 0.0308313
727 1 0.0186436 0.650715 0.251993
728 1 0.969671 0.0834041 0.049513
729 1 0.0737952 0.854736 0.183115
730 1 0.230571 0.955742 0.0623558
731 1 0.413659 0.72595 0.0899236
732 1 0.268668 0.874278 0.236606
733 1 0.378014 0.747599 0.171019
734 1 0.4671 0.798425 0.188964
735 1 0.292041 0.655656 0.214357
736 1 0.371779 0.805474 0.992389
737 1 0.523847 0.654822 0.183779
738 1 0.554842 0.960176 0.00132277
739 1 0.60777 0.880914 0.0879557
740 1 0.291402 0.791059 0.975536
741 1 0.768375 0.949548 0.31547
742 1 0.662963 0.732094 0.235102
743 1 0.66143 0.913963 0.0183522
744 1 0.50452 0.870962 0.160267
745 1 0.506509 0.0152337 0.244368
746 1 0.718786 0.930143 0.970762
747 1 0.494567 0.788206 0.080912
748 1 0.348577 0.715579 0.215642
749 1 0.686725 0.314901 0.159232
750 1 0.716848 0.78698 0.15498
751 1 0.685188 0.518716 0.0750566
752 1 0.706055 0.728162 0.0687745
753 1 0.796826 0.840398 0.860268
754 1 0.956261 0.0691843 0.89357
755 1 0.680822 0.710811 0.124901
756 1 0.96262 0.724337 0.176173
757 1 0.0999283 0.906351 0.227448
758 1 0.941446 0.9096 0.0703799
759 1 0.96922 0.952553 0.0934218
760 1 0.840673 0.671449 0.84941
761 1 0.133654 0.605394 0.184277
762 1 0.00742012 0.0834717 0.164563
763 1 0.0657888 0.913318 0.00879254
764 1 0.0281102 0.0694535 0.00143363
765 1 0.100291 0.914346 0.947412
766 1 0.196414 0.338003 0.989947
767 1 0.230369 0.992342 0.323454
768 1 0.994729 0.00432207 0.162173
769 1 0.346137 0.840129 0.249359
770 1 0.883707 0.959573 0.937015
771 1 0.21893 0.158858 0.979395
772 1 0.155494 0.095694 0.980758
773 1 0.388674 0.984653 0.182362
774 1 0.240014 0.0950643 0.179635
775 1 0.268301 0.86034 0.451555
776 1 0.202926 0.151305 0.37553
777 1 0.508559 0.0538919 0.00656916
778 1 0.539264 0.872133 0.313054
779 1 0.469403 0.92473 0.0451171
780 1 0.413921 0.843459 0.835409
781 1 0.466872 0.167501 0.232973
782 1 0.562057 0.733228 0.323712
783 1 0.322911 0.0205788 0.274974
784 1 0.689835 0.984791 0.0136696
785 1 0.551889 0.527978 0.240775
786 1 0.600858 0.941274 0.101451
787 1 0.840693 0.775847 0.241675
788 1 0.399853 0.0862981 0.0513759
789 1 0.575446 0.993105 0.341018
790 1 0.592581 0.96636 0.159598
791 1 0.991461 0.803865 0.061153
792 1 0.734168 0.114281 0.388051
793 1 0.770421 0.73529 0.17454
794 1 0.670726 0.832061 0.141986
795 1 0.175737 0.99616 0.0131565
796 1 0.702901 0.0020076 0.208105
797 1 0.862965 0.803623 0.0133698
798 1 0.847691 0.0811925 0.0991037
799 1 0.119845 0.168268 0.300974
800 1 0.802271 0.903114 0.95531
801 1 0.941813 0.00868752 0.0152091
802 1 0.136891 0.050768 0.24418
803 1 0.261665 0.970526 0.146473
804 1 0.905199 0.963186 0.0698139
805 1 0.908475 0.815917 0.146102
806 1 0.15629 0.153195 0.000486969
807 1 0.0186976 0.103297 0.451834
808 1 0.200148 0.946637 0.282722
809 1 0.154353 0.936414 0.129985
810 1 0.185935 0.0145962 0.364892
811 1 0.168617 0.946135 0.331809
812 1 0.0343296 0.137438 0.225015
813 1 0.264273 0.0522121 0.519552
814 1 0.0843992 0.0420914 0.185833
815 1 0.337612 0.114275 0.400189
816 1 0.18717 0.979686 0.225171
817 1 0.219504 0.0386059 0.232607
818 1 0.418798 0.911827 0.364082
819 1 0.434678 0.940391 0.313032
820 1 0.310825 0.124081 0.346892
821 1 0.55242 0.902719 0.110045
822 1 0.484458 0.0585994 0.282453
823 1 0.532413 0.822386 0.272332
824 1 0.458437 0.113248 0.368136
825 1 0.579069 0.973095 0.0557077
826 1 0.597742 0.75858 0.144396
827 1 0.87693 0.940939 0.198188
828 1 0.801599 0.0491467 0.168685
829 1 0.852854 0.180727 0.120954
830 1 0.983214 0.856232 0.378918
831 1 0.626391 0.872633 0.988712
832 1 0.550536 0.160733 0.178232
833 1 0.60726 0.539008 0.182406
834 1 0.933607 0.00787956 0.133922
835 1 0.943126 0.0180112 0.0737776
836 1 0.850788 0.795204 0.134415
837 1 0.0118223 0.993919 0.041717
838 1 0.892356 0.282225 0.15815
839 1 0.913007 0.096643 0.998856
840 1 0.837674 0.0632154 0.305714
841 1 0.0838142 0.144175 0.167411
842 1 0.96029 0.185572 0.935675
843 1 0.994672 0.0314558 0.317768
844 1 0.0812303 0.11693 0.438812
845 1 0.873537 0.114684 0.30243
846 1 0.185544 0.362827 0.126574
847 1 0.0900622 0.178859 0.360474
848 1 0.969889 0.912086 0.36505
849 1 0.934232 0.211992 0.0470563
850 1 0.36832 0.870993 0.0127176
851 1 0.165232 0.0500754 0.482123
852 1 0.307997 0.103718 0.264871
853 1 0.271877 0.0724802 0.0553215
854 1 0.412124 0.142864 0.249849
855 1 0.452601 0.046255 0.0605611
856 1 0.471654 0.226402 0.229372
857 1 0.299804 0.25173 0.416936
858 1 0.425763 0.180919 0.382104
859 1 0.540394 0.924099 0.339452
860 1 0.366081 0.167977 0.401869
861 1 0.629665 0.108508 0.990998
862 1 0.632278 0.0564144 0.468004
863 1 0.472188 0.982439 0.339006
864 1 0.526363 0.166902 0.304315
865 1 0.389983 0.0843914 0.10798
866 1 0.678825 0.116642 0.16484
867 1 0.658388 0.773022 0.167781
868 1 0.739337 0.329577 0.125511
869 1 0.740687 0.208189 0.235734
870 1 0.645095 0.00466435 0.190115
871 1 0.65414 0.207485 0.148875
872 1 0.883853 0.0231362 0.260383
873 1 0.108678 0.0457188 0.114607
874 1 0.94236 0.141698 0.0362116
875 1 0.612362 0.816323 0.188084
876 1 0.801814 0.932132 0.0586908
877 1 0.657814 0.207451 0.253556
878 1 0.0637319 0.0880965 0.148951
879 1 0.112545 0.102028 0.210807
880 1 0.758382 0.0505285 0.421917
881 1 0.0435662 0.00789075 0.519579
882 1 0.760779 0.267452 0.196266
883 1 0.0953826 0.113243 0.277208
884 1 0.113854 0.213123 0.165936
885 1 0.132971 0.396723 0.235128
886 1 0.751934 0.157583 0.314003
887 1 0.100133 0.0493713 0.303924
888 1 0.0974907 0.231259 0.264768
889 1 0.077031 0.309282 0.151254
890 1 0.909206 0.277643 0.0818423
891 1 0.236804 0.337495 0.0889518
892 1 0.407469 0.248077 0.00231765
893 1 0.248817 0.102674 0.118314
894 1 0.442078 0.478892 0.233191
895 1 0.47594 0.197956 0.417517
896 1 0.177083 0.365286 0.189268
897 1 0.440268 0.0764453 0.218719
898 1 0.411731 0.252976 0.252097
899 1 0.368604 0.967828 0.125145
900 1 0.458882 0.475341 0.40672