ITEM: TIMESTEP
62700
ITEM: NUMBER OF ATOMS
4000
ITEM: BOX BOUNDS pp pp pp
0.0000000000000000e+00 1.6795961913825074e+01
0.0000000000000000e+00 1.6795961913825074e+01
0.0000000000000000e+00 1.6795961913825074e+01
ITEM: ATOMS id type xs ys zs
1 1 0.956475 0.572334 0.430401
2 1 0.0889987 0.830049 0.1036
3 1 0.99944 0.67749 0.225825
4 1 0.590476 0.874584 0.127932
5 1 0.468896 0.756573 0.355389
6 1 0.575793 0.7138 0.485847
7 1 0.870506 0.454923 0.573901
8 1 0.495649 0.237239 0.338409
9 1 0.329862 0.253767 0.303763
10 1 0.509182 0.0639375 0.411484
11 1 0.263241 0.658945 0.932486
12 1 0.294026 0.487835 0.966436
13 1 0.207012 0.00193318 0.374031
14 1 0.55349 0.598608 0.79533
15 1 0.333526 0.183216 0.962261
16 1 0.470336 0.868155 0.214621
17 1 0.683717 0.503591 0.668386
18 1 0.522721 0.987689 0.937902
19 1 0.645251 0.812371 0.516234
20 1 0.503065 0.212598 0.0858829
21 1 0.537797 0.0453418 0.98115
22 1 0.498512 0.319633 0.177018
23 1 0.830485 0.353035 0.928051
24 1 0.646847 0.994697 0.0294118
25 1 0.651056 0.974622 0.97441
26 1 0.948962 0.233786 0.138074
27 1 0.888625 0.927041 0.245589
28 1 0.595641 0.669331 0.923068
29 1 0.121981 0.664036 0.140843
30 1 0.583356 0.81104 0.954414
31 1 0.317868 0.974102 0.220901
32 1 0.399557 0.180069 0.167022
33 1 0.0891871 0.00148626 0.175736
34 1 0.865063 0.168475 0.137085
35 1 0.156536 0.0613522 0.338062
36 1 0.120649 0.296803 0.530296
37 1 0.443231 0.891257 0.992663
38 1 0.617118 0.944247 0.0539676
39 1 0.291099 0.0789774 0.88117
40 1 0.0301899 0.0774744 0.232337
41 1 0.825028 0.925253 0.934488
42 1 0.866555 0.0142241 0.417234
43 1 0.908224 0.164552 0.403747
44 1 0.121825 0.530342 0.391055
45 1 0.76319 0.0785872 0.880323
46 1 0.805573 0.413945 0.330496
47 1 0.409635 0.78308 0.189427
48 1 0.144781 0.556299 0.219183
49 1 0.172613 0.0789562 0.649761
50 1 0.666057 0.780484 0.373334
51 1 0.591962 0.53238 0.120291
52 1 0.325744 0.119413 0.303274
53 1 0.386459 0.271787 0.310664
54 1 0.0069993 0.620806 0.920971
55 1 0.499293 0.231948 0.0184613
56 1 0.226554 0.0737419 0.369882
57 1 0.328646 0.42058 0.487821
58 1 0.496142 0.49322 0.903591
59 1 0.887655 0.359086 0.451454
60 1 0.35506 0.345089 0.216232
61 1 0.155581 0.749295 0.975276
62 1 0.783689 0.332156 0.421059
63 1 0.488379 0.0598848 0.110328
64 1 0.505701 0.177648 0.314653
65 1 0.3616 0.466778 0.949191
66 1 0.649141 0.839789 0.076471
67 1 0.108031 0.596898 0.18521
68 1 0.0145708 0.443893 0.270974
69 1 0.30183 0.960843 0.0299363
70 1 0.52006 0.00669507 0.818999
71 1 0.555594 0.155001 0.18194
72 1 0.196574 0.137793 0.086426
73 1 0.702812 0.182395 0.854606
74 1 0.338858 0.82243 0.303803
75 1 0.63258 0.580553 0.752937
76 1 0.797715 0.703256 0.16171
77 1 0.398143 0.38876 0.13031
78 1 0.779604 0.577702 0.581761
79 1 0.763436 0.991805 0.0360176
80 1 0.11732 0.269878 0.990554
81 1 0.0597281 0.259928 0.960628
82 1 0.879249 0.700159 0.897041
83 1 0.21568 0.873147 0.83902
84 1 0.344787 0.246218 0.919513
85 1 0.885052 0.22706 0.851846
86 1 0.93713 0.313562 0.0754319
87 1 0.718997 0.4015 0.990074
88 1 0.117142 0.0970335 0.974211
89 1 0.545902 0.856732 0.393237
90 1 0.772498 0.907259 0.202794
91 1 0.0544889 0.0286842 0.799468
92 1 0.127235 0.688432 0.809507
93 1 0.489107 0.940652 0.67443
94 1 0.942614 0.0937614 0.770529
95 1 0.271664 0.535744 0.706984
96 1 0.456679 0.135807 0.145539
97 1 0.195813 0.306237 0.0584782
98 1 0.564434 0.924209 0.314896
99 1 0.365312 0.0670957 0.329126
100 1 0.946648 0.0275153 0.760263
101 1 0.740213 0.176854 0.526898
102 1 0.357372 0.887247 0.392389
103 1 0.90838 0.250977 0.103534
104 1 0.301774 0.0989334 0.940898
105 1 0.0694828 0.992332 0.542637
106 1 0.944018 0.455187 0.458006
107 1 0.618694 0.756663 0.518029
108 1 0.977536 0.124838 0.990434
109 1 0.196093 0.852218 0.658629
110 1 0.720133 0.977501 0.14351
111 1 0.560097 0.918976 0.945893
112 1 0.415382 0.140393 0.0758082
113 1 0.416331 0.0239363 0.168178
114 1 0.74484 0.411364 0.625582
115 1 0.490284 0.176708 0.221178
116 1 0.377982 0.463141 0.517932
117 1 0.24729 0.686 0.0549027
118 1 0.517485 0.098768 0.478175
119 1 0.847717 0.835102 0.389139
120 1 0.58354 0.491803 0.818824
121 1 0.614463 0.403635 0.0394732
122 1 0.13201 0.785158 0.138948
123 1 0.0244973 0.524672 0.228597
124 1 0.363343 0.767131 0.709142
125 1 0.363093 0.504166 0.126904
126 1 0.296034 0.247598 0.468533
127 1 0.98308 0.870049 0.754529
128 1 0.68809 0.854475 0.859161
129 1 0.636464 0.326657 0.511687
130 1 0.783741 0.5852 0.285306
131 1 0.0975636 0.354854 0.427448
132 1 0.19245 0.643119 0.0526126
133 1 0.142516 0.0205681 0.898398
134 1 0.109044 0.531928 0.766716
135 1 0.38735 0.528529 0.0483903
136 1 0.378328 0.840822 0.577679
137 1 0.44875 0.216328 0.991622
138 1 0.186 0.890445 0.220276
139 1 0.763035 0.508961 0.933645
140 1 0.927611 -0.000251275 0.61867
141 1 0.954928 0.119154 0.506869
142 1 0.626439 0.135503 0.0780079
143 1 0.107496 0.257798 0.355556
144 1 0.760607 0.263402 0.533221
145 1 0.800225 0.290867 0.00275187
146 1 0.705643 0.708028 0.15093
147 1 0.0252483 0.407486 0.882115
148 1 0.476783 0.331244 0.916289
149 1 0.854187 0.369225 0.360471
150 1 0.790681 0.551809 0.0914385
151 1 0.824545 0.888717 0.172533
152 1 0.750113 0.659901 0.0944595
153 1 0.737929 0.936684 0.509678
154 1 0.181485 0.231352 0.113957
155 1 0.623313 0.254848 0.293382
156 1 0.893935 0.968997 0.761782
157 1 0.709171 0.216447 0.918511
158 1 0.0595555 0.182238 0.538668
159 1 0.320663 0.15806 0.915622
160 1 0.328434 0.00399779 0.175451
161 1 0.960263 0.399635 0.907138
162 1 0.0559824 0.325056 0.0398802
163 1 0.110656 0.335532 0.142422
164 1 0.898226 0.801194 0.859178
165 1 0.776643 0.67407 0.976082
166 1 0.466576 0.831596 0.0235335
167 1 0.0168973 0.177177 0.427383
168 1 0.186284 0.711287 0.633685
169 1 0.790762 0.600399 0.22202
170 1 0.219588 0.717246 0.402061
171 1 0.524349 0.550283 0.256994
172 1 0.199057 0.354035 0.243961
173 1 0.253106 0.686836 0.879969
174 1 0.0529678 0.671405 0.251683
175 1 0.365489 0.464519 0.324238
176 1 0.218955 0.915083 0.612808
177 1 0.153793 0.746262 0.81153
178 1 0.766361 0.590048 0.125411
179 1 0.567693 0.545141 0.567773
180 1 0.873701 0.425822 0.334061
181 1 0.239809 0.655474 0.375558
182 1 0.83007 0.188783 0.687286
183 1 0.17497 0.430861 0.346992
184 1 0.52677 0.639071 0.765032
185 1 0.771717 0.643491 0.559859
186 1 0.0525502 0.253646 0.413416
187 1 0.442723 0.389065 0.633044
188 1 0.132122 0.214291 0.154157
189 1 0.819099 0.562417 0.937104
190 1 0.404833 0.728555 0.0801672
191 1 0.684515 0.210305 0.514075
192 1 0.876783 0.527419 0.442569
193 1 0.591983 0.18583 0.0307531
194 1 0.869634 0.592894 0.906602
195 1 0.981959 0.521683 0.37535
196 1 0.827417 0.43462 0.88859
197 1 0.480101 0.174239 0.3703
198 1 0.327125 0.652826 0.759187
199 1 0.248873 0.385338 0.614856
200 1 0.597901 0.339835 0.413667
201 1 0.255644 0.250675 0.111786
202 1 0.279313 0.692434 0.187459
203 1 0.0890372 0.383244 0.021636
204 1 0.125385 0.37631 0.196506
205 1 0.432949 0.69734 0.597541
206 1 0.454064 0.384655 0.0649292
207 1 0.0464628 0.805356 0.279921
208 1 0.140029 0.801347 0.926403
209 1 0.150682 0.215878 0.43605
210 1 0.38263 0.887202 0.274803
211 1 0.121475 0.254823 0.109562
212 1 0.931739 0.757736 0.31155
213 1 0.664492 0.92005 0.877217
214 1 0.870741 0.784931 0.0105577
215 1 0.0245042 0.165261 0.0938923
216 1 0.0675682 0.624569 0.155614
217 1 0.382895 0.655452 0.171899
218 1 0.710037 0.578074 0.243019
219 1 0.140846 -0.000617203 0.380633
220 1 0.373216 0.823843 0.376058
221 1 0.24674 0.631179 -0.000984624
222 1 0.367959 0.83284 0.687649
223 1 0.635288 0.786908 0.42902
224 1 0.402698 0.687298 0.745723
225 1 0.524978 0.895613 0.0566715
226 1 0.405569 0.115851 0.895812
227 1 0.352084 0.851397 0.225676
228 1 0.165746 0.40276 0.10103
229 1 0.281683 0.282994 0.787415
230 1 0.238352 0.896329 0.176672
231 1 0.947544 0.4627 0.94008
232 1 0.20859 0.234374 0.451177
233 1 0.824453 0.818242 0.203579
234 1 0.0474688 0.390665 0.294457
235 1 0.0912421 0.312346 0.934975
236 1 0.529058 0.41135 0.997545
237 1 0.839624 0.233748 0.468866
238 1 0.573607 0.606997 0.903181
239 1 0.656659 0.315053 0.855401
240 1 0.71419 0.520561 0.00795385
241 1 0.60607 0.9601 0.160913
242 1 0.473283 0.916668 0.791355
243 1 0.567467 0.80509 0.677062
244 1 0.182893 0.677937 0.182574
245 1 0.980311 0.680115 0.947861
246 1 0.927169 0.596925 0.772528
247 1 0.227213 0.820654 0.868697
248 1 0.95467 0.831496 0.841548
249 1 0.946689 0.345807 0.264119
250 1 0.80497 0.617862 0.970646
251 1 0.462362 0.655817 0.765227
252 1 0.754836 0.867276 0.122418
253 1 0.406787 0.0824898 0.394248
254 1 0.0795421 0.195864 0.777456
255 1 0.335865 0.330855 0.324113
256 1 0.391983 0.867594 0.0784347
257 1 0.419502 0.588756 0.128793
258 1 0.796449 0.447138 0.586096
259 1 0.352122 0.63029 0.136583
260 1 0.238696 0.665319 0.499114
261 1 0.329 0.375567 0.139156
262 1 0.762621 0.397375 0.181725
263 1 0.185198 0.818542 0.510641
264 1 0.106623 0.548023 0.94154
265 1 0.558273 0.428227 0.182858
266 1 0.356974 0.578863 0.748858
267 1 0.423019 0.464053 0.972319
268 1 0.752251 0.0583955 0.125093
269 1 0.420596 0.921 0.151998
270 1 0.23765 0.81786 0.998187
271 1 0.651897 0.474456 0.429833
272 1 0.301073 0.244942 0.232424
273 1 0.139885 0.316009 0.705418
274 1 0.475419 0.269333 0.913974
275 1 0.243287 0.166096 0.545253
276 1 0.718611 0.792249 0.273416
277 1 0.855954 0.446455 0.963504
278 1 0.920909 0.70085 0.750812
279 1 0.490721 0.484121 0.468471
280 1 0.124677 0.843438 0.962894
281 1 0.8445 0.947689 0.501024
282 1 0.0689645 0.665848 0.791662
283 1 0.621977 0.925588 0.992631
284 1 0.791376 0.939016 0.553123
285 1 -0.00149181 0.513766 0.537525
286 1 0.948879 0.479233 0.59936
287 1 0.370601 0.286023 0.166223
288 1 0.0439896 0.514058 0.630267
289 1 0.780671 0.705529 0.10631
290 1 0.628063 0.231007 0.88117
291 1 0.260927 0.953839 0.570184
292 1 0.384798 0.060545 0.444475
293 1 0.28479 0.732667 0.359791
294 1 0.605384 0.792956 0.082099
295 1 0.453889 0.554614 0.336336
296 1 0.0826407 0.792342 0.882844
297 1 0.83892 0.648718 0.885919
298 1 0.52343 0.831367 0.286949
299 1 0.337982 0.0632171 0.235254
300 1 0.811716 0.561984 0.632449
301 1 0.320767 0.423761 0.548066
302 1 0.713634 0.404071 0.278751
303 1 0.650901 0.0153494 0.370639
304 1 0.870288 0.160637 0.579745
305 1 0.4841 0.661121 0.99184
306 1 0.636423 0.660324 0.478836
307 1 0.551741 0.414274 0.0968164
308 1 0.494506 0.0552651 0.935032
309 1 0.383596 0.768257 0.778438
310 1 0.607745 0.923045 0.669729
311 1 0.228036 0.719989 0.276822
312 1 0.220534 0.560084 0.230948
313 1 0.907211 0.646247 0.917336
314 1 0.990159 0.766613 0.654865
315 1 0.373522 0.919205 0.445291
316 1 0.735018 0.367386 0.389329
317 1 0.815308 0.973735 0.964765
318 1 0.552505 0.742953 0.749018
319 1 0.094721 0.347697 0.825365
320 1 0.346691 0.793996 0.0757692
321 1 0.0366799 0.863619 0.284023
322 1 0.664911 0.847357 0.195457
323 1 0.422262 0.439406 0.282784
324 1 0.0891628 0.825711 0.160645
325 1 0.87221 0.808175 0.253939
326 1 0.161585 0.888496 0.625024
327 1 0.216051 0.721797 0.731376
328 1 0.928336 0.810865 0.276103
329 1 0.655076 0.781067 0.865012
330 1 0.849231 0.434148 0.387298
331 1 0.453351 0.842665 0.643832
332 1 0.271134 0.192953 0.71387
333 1 0.687093 0.81162 0.909817
334 1 0.889496 0.866868 0.583226
335 1 0.828197 0.109135 0.227476
336 1 0.091804 0.974934 0.877709
337 1 0.833975 0.452657 0.784691
338 1 0.203984 0.943212 0.158348
339 1 0.397887 0.448833 0.679593
340 1 0.0184206 0.942819 0.317759
341 1 0.394126 0.574129 0.175067
342 1 0.479772 0.877631 0.901665
343 1 0.650262 0.627254 0.153378
344 1 0.669678 0.0242894 0.747426
345 1 0.887497 0.675577 0.0464804
346 1 0.296507 0.533987 0.0100296
347 1 0.563298 0.240449 0.944258
348 1 0.76352 0.114733 0.534565
349 1 0.450268 0.618915 0.440316
350 1 0.68908 0.685455 0.0580683
351 1 0.877196 0.829757 0.33155
352 1 0.024772 0.922382 0.551937
353 1 0.415159 0.866246 0.699206
354 1 0.514852 0.871927 0.784907
355 1 0.0536359 0.616726 0.859702
356 1 0.719592 0.237751 0.247477
357 1 0.559686 0.203203 0.317629
358 1 0.2874 0.35458 0.38009
359 1 0.0409927 0.549163 0.0158481
360 1 0.969538 0.399229 0.121695
361 1 0.37144 0.606062 0.220131
362 1 0.101597 0.289814 0.768819
363 1 0.833078 0.78215 0.824225
364 1 0.719993 0.328114 0.968893
365 1 0.119953 0.785308 0.28331
366 1 0.106763 0.933843 0.774768
367 1 0.122122 0.0137733 0.227912
368 1 0.925477 0.137431 0.285633
369 1 0.34716 0.124281 0.874705
370 1 0.0234195 0.548424 0.682066
371 1 0.313079 0.759461 0.0256646
372 1 0.890568 0.309457 0.855589
373 1 0.448477 0.705024 0.0267495
374 1 0.725854 0.748897 0.583387
375 1 0.222894 0.491366 0.102792
376 1 0.139024 0.866962 0.456805
377 1 0.243124 0.747134 0.67855
378 1 0.34961 0.876283 0.93998
379 1 0.397397 0.496615 0.283455
380 1 0.535703 0.7125 0.128566
381 1 0.786886 0.028215 0.89503
382 1 0.463781 0.986651 0.9865
383 1 0.117899 0.0744821 0.621239
384 1 0.89122 0.223719 0.013095
385 1 0.639937 0.136955 0.00647423
386 1 0.475609 0.604289 0.0780257
387 1 0.260366 0.933138 0.928546
388 1 0.342591 0.10484 0.473961
389 1 0.183644 0.107169 0.698877
390 1 0.800353 0.260526 0.0782785
391 1 0.258408 0.88224 0.792058
392 1 0.149731 0.884858 0.683632
393 1 0.168322 0.70128 0.128471
394 1 0.666296 0.321605 0.683969
395 1 0.492204 0.411103 0.320755
396 1 0.915076 0.361072 0.896206
397 1 0.0779777 0.55707 0.601897
398 1 0.284355 0.515781 0.255272
399 1 0.335966 0.13678 0.245554
400 1 0.773561 0.831729 0.982265
401 1 0.900459 0.0373306 0.868657
402 1 0.335147 0.0897161 0.702999
403 1 0.631246 0.723645 0.12158
404 1 0.594901 0.481882 0.939801
405 1 0.564212 0.142256 0.123806
406 1 0.841596 0.0924038 0.0770989
407 1 0.427524 0.742225 0.318334
408 1 0.691505 0.954731 0.365915
409 1 0.928182 0.96946 0.297573
410 1 0.0231484 0.398981 0.0819656
411 1 0.222558 0.0445225 0.594079
412 1 0.429512 0.0279158 0.37683
413 1 0.325807 0.0548193 0.98253
414 1 0.411505 0.82923 0.0390344
415 1 0.747374 0.380395 0.322842
416 1 0.397223 0.205845 0.111539
417 1 0.378878 0.521438 0.83104
418 1 0.207205 0.637523 0.142748
419 1 0.724507 0.807923 0.649136
420 1 0.333946 0.586883 0.810243
421 1 0.421014 0.43475 0.912969
422 1 0.415618 0.147031 0.368759
423 1 0.944692 0.296069 0.910078
424 1 0.554539 0.960599 0.469616
425 1 0.0784536 0.20571 0.26374
426 1 0.548213 0.0633844 0.341386
427 1 0.584058 0.532709 0.390605
428 1 0.200195 0.0248443 0.066355
429 1 0.860123 0.723551 0.0611629
430 1 0.514217 0.16694 0.0458649
431 1 0.779052 0.749677 0.964142
432 1 0.483641 0.421612 0.592585
433 1 0.0467236 0.871578 0.615031
434 1 0.922469 0.892405 0.541075
435 1 0.919225 0.243989 0.448235
436 1 0.990512 0.191119 0.334718
437 1 0.21392 0.986112 0.272318
438 1 0.399003 0.594035 0.81614
439 1 0.189908 0.622242 0.835099
440 1 0.240997 0.831586 0.530731
441 1 0.774046 0.209357 0.230551
442 1 0.132904 0.975451 0.27236
443 1 0.895436 0.0933897 0.196943
444 1 0.179145 0.383951 0.607851
445 1 0.99497 0.157057 0.482202
446 1 0.0615876 0.175939 0.0354432
447 1 0.661872 0.320027 0.563178
448 1 0.724737 0.226035 0.407442
449 1 0.930686 0.260093 0.978972
450 1 0.341434 0.724239 0.51609
451 1 0.625467 0.678288 0.656799
452 1 0.510934 0.830603 0.164927
453 1 0.302514 0.298222 0.145008
454 1 0.0730232 0.226762 0.833179
455 1 0.287921 0.615248 0.327653
456 1 0.713894 0.900368 0.806811
457 1 0.99028 0.984768 0.286242
458 1 0.464522 0.284925 0.0263729
459 1 0.726167 0.0790063 0.205795
460 1 0.943436 0.299687 0.574474
461 1 0.0914319 0.882732 0.507215
462 1 0.201819 0.135115 0.0166142
463 1 0.322625 0.86344 0.777814
464 1 0.96115 0.622761 0.0124483
465 1 0.903385 0.0700739 0.654857
466 1 0.798377 0.318069 0.188856
467 1 0.00208666 0.902806 0.839787
468 1 0.420702 0.168348 0.516242
469 1 0.00957387 0.220643 0.383441
470 1 0.913052 0.974392 0.389374
471 1 0.894155 0.320293 0.119392
472 1 0.826812 0.378988 0.209462
473 1 0.963019 0.219615 0.780601
474 1 0.344604 0.23932 0.569645
475 1 0.646226 0.0184078 0.23868
476 1 0.812699 0.9755 0.890902
477 1 0.637788 0.123632 0.211511
478 1 0.246893 0.392469 0.354417
479 1 0.815061 0.192993 0.627753
480 1 0.642757 0.496846 0.176233
481 1 0.229639 0.357496 0.887172
482 1 0.89999 0.246336 0.910637
483 1 0.237981 0.921774 0.0981458
484 1 0.571652 0.0744852 0.214737
485 1 0.0131362 0.365438 0.426659
486 1 0.0690497 0.437916 0.976584
487 1 0.876364 0.334407 0.0518367
488 1 0.968112 0.837728 0.97381
489 1 0.87866 0.0465921 0.80654
490 1 0.0669943 0.330817 0.695925
491 1 0.642376 0.930275 0.610595
492 1 0.509469 0.341238 0.743478
493 1 0.0697729 0.195044 0.403008
494 1 0.361732 0.887316 0.740251
495 1 0.246513 0.95087 0.378433
496 1 0.456811 0.633249 0.841156
497 1 0.203281 0.73165 0.0387194
498 1 0.229913 0.0679859 0.46242
499 1 0.96826 0.918067 0.0574028
500 1 0.403061 0.854422 0.816823
501 1 0.475778 0.946104 0.217974
502 1 0.266595 0.131689 0.198472
503 1 0.377474 0.407483 0.941424
504 1 0.672535 0.950317 0.17306
505 1 0.6275 0.510539 0.607225
506 1 0.160176 0.279147 0.447555
507 1 0.26557 0.423239 0.572339
508 1 0.517246 0.0928387 0.822264
509 1 0.575576 0.679814 0.227652
510 1 0.231947 0.829318 0.186096
511 1 0.140935 0.963069 0.15712
512 1 0.274742 0.586638 0.209899
513 1 0.60608 0.311397 0.204945
514 1 0.328553 0.12832 0.573733
515 1 0.133719 0.863877 0.215801
516 1 0.72684 0.479362 0.250968
517 1 0.569706 0.317364 0.758892
518 1 0.650341 0.854772 0.676924
519 1 0.0699634 0.444319 0.315062
520 1 0.34268 0.768352 0.648296
521 1 0.559248 0.245706 0.0220379
522 1 0.287402 0.309874 0.415755
523 1 0.310154 0.276634 0.977096
524 1 0.131099 0.217161 0.871809
525 1 0.00437118 0.841452 0.814081
526 1 0.449002 0.173351 0.872938
527 1 0.9758 0.898535 0.904501
528 1 0.091765 0.149763 0.812731
529 1 0.946797 0.507412 0.232928
530 1 0.408182 0.508324 0.93992
531 1 0.233382 0.193156 0.116889
532 1 0.236574 0.190801 0.787451
533 1 0.569432 0.519658 0.624939
534 1 0.926198 0.926579 0.417579
535 1 0.0812507 0.565574 0.0621758
536 1 0.182761 0.146095 0.34795
537 1 0.318409 0.274301 0.734147
538 1 0.49076 0.60879 0.906837
539 1 0.129795 0.836123 0.650702
540 1 0.406643 0.407827 0.183559
541 1 0.587158 0.626012 0.0186705
542 1 0.331867 0.483071 0.0266248
543 1 0.73298 0.241448 0.580711
544 1 0.0222052 0.422539 0.152769
545 1 0.179085 0.360532 0.451301
546 1 0.34953 0.482947 0.572182
547 1 0.403686 0.710903 0.929242
548 1 0.885435 0.985046 0.881928
549 1 0.583821 0.820171 0.0296889
550 1 0.749662 0.590938 0.897541
551 1 0.00263461 0.303678 0.463785
552 1 0.147488 0.31971 0.955909
553 1 0.821589 0.336091 0.0443583
554 1 0.621214 0.541881 0.536071
555 1 0.857364 0.375629 0.101686
556 1 0.155513 0.0544652 0.949877
557 1 0.231094 0.529916 0.766593
558 1 0.739894 0.191486 0.458745
559 1 0.947174 0.913799 0.112398
560 1 0.879023 0.158251 0.19539
561 1 0.737251 0.97236 0.627021
562 1 0.0748568 0.418512 0.174189
563 1 0.166429 0.630942 0.90239
564 1 0.400343 0.791514 0.302794
565 1 0.972477 0.645237 0.131875
566 1 0.860743 0.960827 0.43825
567 1 0.463796 0.305408 0.54922
568 1 0.548493 0.587102 0.642139
569 1 0.76602 0.0330466 0.795896
570 1 0.936224 0.520896 0.929296
571 1 0.12666 0.900025 0.918284
572 1 0.337852 0.757526 0.963937
573 1 0.307075 0.550503 0.417353
574 1 0.355014 0.301382 0.561115
575 1 0.192773 0.6307 0.423576
576 1 0.0685543 0.854811 0.987438
577 1 0.064996 0.440858 0.109938
578 1 0.177885 0.069213 0.769045
579 1 0.331932 0.518246 0.0811333
580 1 0.755661 0.980894 0.912505
581 1 0.290591 0.551353 0.887431
582 1 0.638234 0.525268 0.919329
583 1 0.615512 0.338693 0.989919
584 1 0.0318665 0.591627 0.226584
585 1 0.50276 0.486285 0.817465
586 1 0.0321673 0.326353 0.973052
587 1 0.115131 0.0641506 0.430512
588 1 0.0400674 0.161612 0.16399
589 1 0.338248 0.625909 0.60942
590 1 0.920589 0.381825 0.825731
591 1 0.629583 0.180988 0.841041
592 1 0.660696 0.599732 0.963353
593 1 0.622261 0.257753 0.536158
594 1 0.1082 0.0810756 0.152263
595 1 0.384351 0.446715 0.0180452
596 1 0.941254 0.148705 0.211642
597 1 0.923858 0.937256 0.912551
598 1 0.257138 0.762199 0.0166119
599 1 0.959918 0.979769 0.106418
600 1 0.914099 0.763575 0.761892
601 1 0.043427 0.257491 0.148718
602 1 0.21791 0.201872 0.609954
603 1 0.152987 0.951509 0.568289
604 1 0.557008 0.741538 0.175156
605 1 0.319014 0.0676328 0.378756
606 1 0.687552 0.418727 0.702958
607 1 0.505939 0.690026 0.718263
608 1 0.372915 0.93315 0.910139
609 1 0.885779 0.645881 0.975481
610 1 0.905386 0.396398 0.295712
611 1 0.561343 0.87591 0.256751
612 1 0.320015 0.512905 0.163875
613 1 0.152828 0.0217615 0.172277
614 1 0.111811 0.511595 0.0199134
615 1 0.408574 0.966042 0.200911
616 1 0.187057 0.530951 0.188532
617 1 0.54324 0.49494 0.864168
618 1 0.28827 0.458876 0.694133
619 1 0.420578 0.705775 0.38939
620 1 0.975831 0.0392764 0.245513
621 1 0.675693 0.529506 0.275867
622 1 0.429104 0.309254 0.409418
623 1 0.818172 0.502088 0.119938
624 1 0.784612 0.306503 0.568846
625 1 0.021909 0.700597 0.648153
626 1 0.283765 0.441767 0.993868
627 1 0.159068 0.443802 0.907446
628 1 0.158984 0.486019 0.321231
629 1 0.819726 0.0725519 0.423368
630 1 0.320556 0.861463 0.354837
631 1 0.857925 0.864036 0.221875
632 1 0.712096 0.578199 0.994076
633 1 0.0659248 0.0931275 0.27552
634 1 0.629143 0.426735 0.199406
635 1 0.811137 0.486356 0.234887
636 1 0.722625 0.738984 0.334723
637 1 0.629284 0.136694 0.552901
638 1 0.594773 0.739716 0.961597
639 1 0.738236 0.0428504 0.918645
640 1 0.317633 0.867987 0.273709
641 1 0.567241 0.681033 0.773792
642 1 0.764819 0.585425 0.51641
643 1 0.621384 0.691559 0.820983
644 1 0.922746 0.446632 0.24373
645 1 0.0150044 0.977753 0.549889
646 1 0.459679 0.529509 0.199504
647 1 0.669145 0.0805098 0.10715
648 1 0.769627 0.0770063 0.387871
649 1 0.0646778 0.920107 0.899453
650 1 0.0309343 0.249601 0.0190402
651 1 0.241532 0.730067 0.834552
652 1 0.773896 0.996543 0.0968425
653 1 0.700703 0.444488 0.830085
654 1 0.873941 0.133629 0.258154
655 1 0.20774 0.694726 0.337141
656 1 0.419151 0.688473 0.872303
657 1 0.279928 0.909418 0.138592
658 1 0.769726 0.579692 0.392995
659 1 0.508839 0.285761 0.866842
660 1 0.665481 0.725609 0.854581
661 1 0.226712 0.484238 0.581034
662 1 0.0104947 0.730646 0.397257
663 1 0.694754 0.0177575 0.323564
664 1 0.354041 0.655433 0.0127589
665 1 0.781538 0.479618 0.0734193
666 1 0.95807 0.777185 0.178846
667 1 0.465564 0.353165 0.361039
668 1 0.115213 0.582827 0.413899
669 1 0.614516 0.263665 0.930803
670 1 0.46471 0.564851 0.505285
671 1 0.698244 0.461648 0.190912
672 1 0.87691 0.147587 0.0819537
673 1 0.782898 0.771308 0.533108
674 1 0.107955 0.691782 0.270373
675 1 0.417801 0.281371 0.919065
676 1 0.399879 0.144068 0.301438
677 1 0.62888 0.585006 0.0393398
678 1 0.987424 0.751963 0.781491
679 1 0.0387099 0.804233 0.0108901
680 1 0.0819126 0.704825 0.10323
681 1 0.319011 0.791624 0.457949
682 1 0.861449 0.810504 0.141455
683 1 0.238687 0.0823716 0.836754
684 1 0.913732 0.189865 0.16211
685 1 0.957441 0.82771 0.0634634
686 1 0.997377 0.480452 0.422404
687 1 0.866388 0.669426 0.451417
688 1 0.333325 0.853397 0.883718
689 1 0.317153 0.239869 0.140998
690 1 0.261775 0.170901 0.447306
691 1 0.899859 0.0321598 0.459747
692 1 0.792785 0.960712 0.753243
693 1 0.30146 0.655344 0.820683
694 1 0.432681 0.0480404 0.0554195
695 1 0.966077 0.277992 0.813148
696 1 0.299914 0.915036 0.482303
697 1 0.759583 0.251762 0.194609
698 1 0.0961755 0.657718 0.686405
699 1 0.670399 0.753191 0.165601
700 1 0.806353 0.175678 0.366779
701 1 0.268045 0.796545 0.210405
702 1 0.933625 0.1202 0.886154
703 1 0.553631 0.448077 0.494689
704 1 0.775524 0.824019 0.853754
705 1 0.180873 0.905675 0.116295
706 1 0.579873 0.795689 0.490336
707 1 0.846222 0.108086 0.310832
708 1 0.87431 0.961279 0.568026
709 1 0.303929 0.276446 0.348883
710 1 0.95276 0.823193 0.779446
711 1 0.274321 0.219685 0.861925
712 1 0.833684 0.77601 0.90323
713 1 0.408537 0.727403 0.534947
714 1 0.998588 0.488971 0.737794
715 1 0.341519 0.752535 0.33242
716 1 0.272481 0.607338 0.60577
717 1 0.399922 0.787617 0.1211
718 1 0.397337 0.091218 0.729843
719 1 0.710259 0.203996 0.349725
720 1 0.948323 0.644224 0.757774
721 1 0.756084 0.922224 0.376814
722 1 0.468362 0.671494 0.899509
723 1 0.28483 0.755405 0.106161
724 1 0.504394 0.663404 0.390814
725 1 0.0134829 0.0883568 0.848857
726 1 0.45468 0.362401 0.445211
727 1 0.171887 0.176517 0.482781
728 1 0.914003 0.368862 0.952976
729 1 0.563407 0.471589 0.401774
730 1 0.288694 0.81351 0.914486
731 1 0.241111 0.47099 0.190918
732 1 0.70028 0.619487 0.299144
733 1 0.182808 0.521088 0.361574
734 1 0.697335 0.001662 0.93363
735 1 0.206879 0.911686 0.764962
736 1 0.23919 0.987502 0.928993
737 1 0.0312307 0.570626 0.894718
738 1 0.356497 0.210533 0.525886
739 1 0.531654 0.542168 0.146132
740 1 0.401422 0.955472 0.0930029
741 1 0.0385185 0.251982 0.719658
742 1 0.602433 0.156984 0.361509
743 1 0.0262064 0.639881 0.354094
744 1 0.580771 0.0401042 0.568406
745 1 0.628976 0.95922 0.362857
746 1 0.596512 0.157158 0.971338
747 1 0.32273 0.293211 0.20212
748 1 0.987041 0.791262 0.296395
749 1 0.780438 0.285634 0.866993
750 1 0.89432 0.470879 0.295399
751 1 0.955705 0.553664 0.855782
752 1 0.926723 0.619359 0.159197
753 1 0.551425 0.168287 0.268734
754 1 0.14601 0.208745 0.693032
755 1 0.765697 0.423484 0.393809
756 1 0.854905 0.48651 0.40831
757 1 0.37403 0.793957 0.234206
758 1 0.820458 0.795895 0.960618
759 1 0.474758 0.0952819 0.205096
760 1 0.76939 0.0040339 0.846407
761 1 0.988453 0.521815 0.182839
762 1 0.332472 0.153603 0.182086
763 1 0.0198922 0.811008 0.0723731
764 1 0.645404 0.41205 0.0897741
765 1 0.034617 0.181269 0.743951
766 1 0.224521 0.310273 0.111159
767 1 0.479086 0.817825 0.734443
768 1 0.0128544 0.750711 0.19443
769 1 0.341685 0.896148 0.681589
770 1 0.0648399 0.056216 0.519861
771 1 0.573273 0.976492 0.66684
772 1 0.0615342 0.318298 0.561992
773 1 0.416828 0.859724 0.401243
774 1 0.0382447 0.410384 0.77335
775 1 0.175501 0.0775341 0.586896
776 1 0.247357 0.012054 0.109706
777 1 0.785953 0.175587 0.978716
778 1 0.581557 0.865483 0.680271
779 1 0.299551 0.938198 0.35552
780 1 0.608917 0.837768 0.383321
781 1 0.279817 0.541568 0.94807
782 1 0.773315 0.476891 0.191183
783 1 0.440964 0.0484947 0.957985
784 1 0.287266 0.755351 0.163948
785 1 0.765315 0.655764 0.286579
786 1 0.745511 0.351404 0.918641
787 1 0.929063 0.318386 0.195261
788 1 0.410201 0.351051 0.939308
789 1 0.699181 0.427658 0.417396
790 1 0.471469 0.267272 0.217717
791 1 0.233327 0.18806 0.350796
792 1 0.352855 0.897701 0.521887
793 1 0.957065 0.801698 0.424734
794 1 0.628497 0.00917034 0.0860673
795 1 0.247792 0.797849 0.100036
796 1 0.800547 0.610704 0.90962
797 1 0.932379 0.71283 0.937118
798 1 0.854007 0.861061 0.522694
799 1 0.258415 0.90595 0.0199474
800 1 0.493128 0.445069 0.862401
801 1 0.631026 0.80637 0.616434
802 1 0.135046 0.885368 0.162135
803 1 0.227129 0.244242 0.054902
804 1 0.559667 0.233227 0.879531
805 1 0.442969 0.0951807 0.114216
806 1 0.159507 0.520064 0.901079
807 1 0.486891 0.415172 0.45816
808 1 0.332556 0.349987 0.0703284
809 1 0.0623357 0.3625 0.890856
810 1 0.379821 0.975449 0.146734
811 1 0.0614305 0.328782 0.623936
812 1 0.198738 0.133934 0.431939
813 1 0.279735 0.0104333 0.556265
814 1 0.469329 0.29876 0.968921
815 1 0.383712 0.524075 0.735027
816 1 0.289804 0.187408 0.0708193
817 1 0.373072 0.531143 0.395789
818 1 0.59152 0.128739 0.71651
819 1 0.303536 0.664787 0.505229
820 1 0.0841705 0.939792 0.107112
821 1 0.779822 0.199256 0.3055
822 1 0.19526 0.140708 0.59012
823 1 0.428969 0.659467 0.496454
824 1 0.222727 0.32106 0.302335
825 1 0.708472 0.0431229 0.251908
826 1 0.902266 0.712983 0.453967
827 1 0.16688 0.74306 0.177616
828 1 0.54515 0.973605 0.24444
829 1 0.888025 0.112609 0.501356
830 1 0.108242 0.908204 0.850439
831 1 0.455359 0.866143 0.15287
832 1 0.84326 0.055825 0.194637
833 1 0.170779 0.202276 0.325367
834 1 0.56868 0.981855 0.78825
835 1 0.0756797 0.497206 0.685452
836 1 0.727091 0.792744 0.527528
837 1 0.588592 0.934488 0.110082
838 1 0.8538 0.17472 0.478618
839 1 0.969992 0.945996 0.990895
840 1 0.754945 0.766607 0.0836357
841 1 0.218465 0.98413 0.871782
842 1 0.227936 0.0332663 0.651412
843 1 0.303546 0.0161317 0.347899
844 1 0.434199 0.740274 0.148691
845 1 0.510057 0.406899 0.14986
846 1 0.0149578 0.934887 0.0251223
847 1 0.728081 0.866738 0.949487
848 1 0.177511 0.501429 0.0542659
849 1 0.239723 0.234122 0.543505
850 1 0.287651 0.169678 0.144041
851 1 0.529825 0.101363 0.881634
852 1 0.875499 0.712801 0.202549
853 1 0.137833 0.938447 0.0687749
854 1 0.559696 0.356479 0.146692
855 1 0.045017 0.902123 0.0775428
856 1 0.381623 0.245137 0.805509
857 1 0.255197 0.322691 0.255406
858 1 0.940049 0.433735 0.0259113
859 1 0.886652 0.684831 0.620992
860 1 0.612746 0.328896 0.599311
861 1 0.803385 0.292935 0.280651
862 1 0.458618 0.373342 0.290901
863 1 0.732552 0.807636 0.355605
864 1 0.485123 0.164611 0.519288
865 1 0.659913 0.359301 0.220026
866 1 0.230916 0.0797896 0.693645
867 1 0.883176 0.238795 0.182259
868 1 0.716565 0.0373558 0.380969
869 1 0.0914229 0.0683426 0.207164
870 1 0.398282 0.348996 0.17652
871 1 0.798548 0.327811 0.0997568
872 1 0.140257 0.0534906 0.0949237
873 1 0.670902 0.246854 0.963361
874 1 0.812149 0.0581654 0.273
875 1 0.58233 0.736907 0.0888662
876 1 0.733622 0.86465 0.757999
877 1 0.571112 0.820797 0.153684
878 1 0.894812 0.891287 0.181105
879 1 0.162676 0.255124 0.057284
880 1 0.0366144 0.971131 0.448462
881 1 0.529519 0.517504 0.503631
882 1 0.887148 0.41385 0.00488104
883 1 0.3232 0.0527475 0.449221
884 1 0.9351 0.668807 0.183631
885 1 0.643949 0.720525 0.467429
886 1 0.020627 0.14397 0.644702
887 1 0.823186 0.156575 0.789613
888 1 0.663555 0.0726157 0.197958
889 1 0.9502 0.480917 0.283194
890 1 0.8116 0.681945 0.0180036
891 1 0.412934 0.635348 0.0189045
892 1 0.666219 0.310556 0.00961368
893 1 0.00323636 0.517245 0.862784
894 1 0.0091565 0.637101 0.760434
895 1 0.74818 0.47111 0.537405
896 1 0.942268 0.957495 0.701344
897 1 0.149619 0.947417 0.897547
898 1 0.855749 0.326384 0.983182
899 1 0.566637 0.106204 0.941764
900 1 0.327399 0.421694 0.674305
901 1 0.59099 0.583654 0.350294
902 1 0.257174 0.522839 0.822288
903 1 0.446378 0.976831 0.129833
904 1 0.511033 0.0442142 0.686704
905 1 0.758313 0.0100215 0.270836