LAMMPS (2 Aug 2023 - Update 3)
OMP_NUM_THREADS environment is not set. Defaulting to 1 thread. (src/comm.cpp:98)
  using 1 OpenMP thread(s) per MPI task
Loaded 1 plugins from C:\Users\Acer\AppData\Local\LAMMPS 64-bit 2Aug2023\plugins
# --------------------- INITIALIZATION --------------------------
units          lj    # others include, ij, si, cgs, real, micro, nano, etc

# ----------------------SETUP SIMULATION BOX and ATOMS --------------------
atom_style atomic
dimension 3
boundary p p p

lattice fcc 0.8442
Lattice spacing in x,y,z = 1.6795962 1.6795962 1.6795962
region box block 0 10 0 10 0 10
create_box 1 box
Created orthogonal box = (0 0 0) to (16.795962 16.795962 16.795962)
  1 by 1 by 1 MPI processor grid
create_atoms 1 box
Created 4000 atoms
  using lattice units in orthogonal box = (0 0 0) to (16.795962 16.795962 16.795962)
  create_atoms CPU = 0.001 seconds

mass 1 1.0


# ------------ FORCE FIELDS (INTERATOMIC POTENTIAL) -----------------------
pair_style lj/cut 2.5
pair_coeff 1 1 1.0 1.0 2.5


neighbor 0.3 bin
neigh_modify delay 0 every 1 check yes

# ------------- SETTINGS  -------------------------------------------------
velocity all create 0.1 87287 loop geom



# ------------- OUTPUT  -------------------------------------------------


shell mkdir -p output


thermo 100
thermo_style custom step temp pe ke etotal


dump myDump all atom 100 output/melting_*.lammpstrj
dump_modify myDump sort id

# >>>>>>>>>>> FIRST RUN <<<<<<<<<<<<<<<<<<<<<<<<
fix 1 all nve
run 10000                                           # Equilibrate the system at a low temperature
Generated 0 of 0 mixed pair_coeff terms from geometric mixing rule
Neighbor list info ...
  update: every = 1 steps, delay = 0 steps, check = yes
  max neighbors/atom: 2000, page size: 100000
  master list distance cutoff = 2.8
  ghost atom cutoff = 2.8
  binsize = 1.4, bins = 12 12 12
  1 neighbor lists, perpetual/occasional/extra = 1 0 0
  (1) pair lj/cut, perpetual
      attributes: half, newton on
      pair build: half/bin/atomonly/newton
      stencil: half/bin/3d
      bin: standard
Per MPI rank memory allocation (min/avg/max) = 3.722 | 3.722 | 3.722 Mbytes
   Step          Temp          PotEng         KinEng         TotEng    
         0   0.1           -6.7733681      0.1499625     -6.6234056    
       100   0.055880875   -6.706863       0.083800357   -6.6230627    
       200   0.0501154     -6.6981853      0.075154306   -6.623031     
       300   0.051528532   -6.700257       0.077273474   -6.6229836    
       400   0.051674715   -6.7005493      0.077492695   -6.6230566    
       500   0.05162393    -6.7004244      0.077416536   -6.6230079    
       600   0.050491328   -6.6987222      0.075718058   -6.6230042    
       700   0.051459061   -6.7002958      0.077169294   -6.6231265    
       800   0.051153622   -6.6997404      0.076711251   -6.6230292    
       900   0.051307575   -6.7000279      0.076942122   -6.6230858    
      1000   0.051540624   -6.7003331      0.077291608   -6.6230414    
      1100   0.0503837     -6.6985769      0.075556657   -6.6230202    
      1200   0.050325618   -6.6985309      0.075469555   -6.6230614    
      1300   0.051031789   -6.6995495      0.076528547   -6.6230209    
      1400   0.051235667   -6.6999087      0.076834288   -6.6230744    
      1500   0.051272831   -6.6998944      0.07689002    -6.6230043    
      1600   0.051307353   -6.6999588      0.076941789   -6.623017     
      1700   0.051118185   -6.6995366      0.076658108   -6.6228785    
      1800   0.050527247   -6.6987843      0.075771923   -6.6230123    
      1900   0.051004761   -6.6996352      0.076488015   -6.6231471    
      2000   0.051766789   -6.7007258      0.07763077    -6.623095     
      2100   0.051066809   -6.6996463      0.076581064   -6.6230652    
      2200   0.051119193   -6.6996966      0.07665962    -6.623037     
      2300   0.050506165   -6.6987842      0.075740307   -6.6230439    
      2400   0.051160352   -6.6997491      0.076721343   -6.6230277    
      2500   0.050740497   -6.6991553      0.076091718   -6.6230636    
      2600   0.050719981   -6.6990763      0.076060951   -6.6230154    
      2700   0.050418626   -6.6987338      0.075609033   -6.6231247    
      2800   0.050678764   -6.699035       0.075999142   -6.6230358    
      2900   0.05235061    -6.7015431      0.078506283   -6.6230369    
      3000   0.050796144   -6.6992359      0.076175168   -6.6230608    
      3100   0.050000358   -6.6980211      0.074981787   -6.6230394    
      3200   0.051249879   -6.6998348      0.0768556     -6.6229792    
      3300   0.051397069   -6.7001447      0.077076329   -6.6230684    
      3400   0.051499603   -6.7002096      0.077230092   -6.6229795    
      3500   0.051205042   -6.6998622      0.076788361   -6.6230739    
      3600   0.05173049    -6.7006702      0.077576336   -6.6230939    
      3700   0.050401823   -6.6986316      0.075583835   -6.6230478    
      3800   0.05186729    -6.7007938      0.077781484   -6.6230124    
      3900   0.051113912   -6.6997446      0.0766517     -6.6230929    
      4000   0.051493098   -6.7002043      0.077220336   -6.622984     
      4100   0.051140579   -6.6996262      0.076691691   -6.6229345    
      4200   0.051517463   -6.7002933      0.077256876   -6.6230365    
      4300   0.05054019    -6.6988154      0.075791333   -6.6230241    
      4400   0.051267221   -6.6999308      0.076881607   -6.6230492    
      4500   0.051704142   -6.7005978      0.077536825   -6.623061     
      4600   0.051105633   -6.6996105      0.076639285   -6.6229712    
      4700   0.051114612   -6.6997261      0.076652751   -6.6230733    
      4800   0.051213201   -6.6998211      0.076800597   -6.6230206    
      4900   0.050821462   -6.6992423      0.076213134   -6.6230291    
      5000   0.05116926    -6.6997919      0.076734702   -6.6230572    
      5100   0.051262641   -6.6999649      0.076874738   -6.6230902    
      5200   0.051361597   -6.7000638      0.077023135   -6.6230407    
      5300   0.051934159   -6.7009682      0.077881763   -6.6230864    
      5400   0.050947901   -6.6993746      0.076402746   -6.6229718    
      5500   0.051772333   -6.700779       0.077639085   -6.6231399    
      5600   0.051020386   -6.6994951      0.076511447   -6.6229837    
      5700   0.050813173   -6.6992496      0.076200705   -6.6230488    
      5800   0.050957077   -6.6994328      0.076416507   -6.6230163    
      5900   0.051527998   -6.7003263      0.077272674   -6.6230536    
      6000   0.051130134   -6.6997575      0.076676027   -6.6230815    
      6100   0.051877959   -6.7008182      0.077797484   -6.6230207    
      6200   0.0513274     -6.699968       0.076971852   -6.6229961    
      6300   0.05120352    -6.6998712      0.076786079   -6.6230851    
      6400   0.051651258   -6.700433       0.077457519   -6.6229755    
      6500   0.051539789   -6.7003592      0.077290356   -6.6230689    
      6600   0.050464145   -6.6986882      0.075677294   -6.6230109    
      6700   0.051949458   -6.7010358      0.077904706   -6.6231311    
      6800   0.050872271   -6.6992969      0.07628933    -6.6230076    
      6900   0.050635155   -6.6989981      0.075933744   -6.6230643    
      7000   0.04991788    -6.69789        0.074858101   -6.6230319    
      7100   0.051218025   -6.6998239      0.076807831   -6.6230161    
      7200   0.051275883   -6.6999065      0.076894597   -6.623012     
      7300   0.050552578   -6.6988826      0.07580991    -6.6230727    
      7400   0.051381081   -6.7000808      0.077052353   -6.6230284    
      7500   0.05140601    -6.7002164      0.077089738   -6.6231266    
      7600   0.051574478   -6.700408       0.077342376   -6.6230656    
      7700   0.050253205   -6.6983077      0.075360963   -6.6229467    
      7800   0.0513432     -6.7000123      0.076995547   -6.6230167    
      7900   0.051121928   -6.6996758      0.076663721   -6.623012     
      8000   0.052002612   -6.7009527      0.077984416   -6.6229683    
      8100   0.051046702   -6.6996079      0.07655091    -6.623057     
      8200   0.051151534   -6.6997692      0.076708118   -6.623061     
      8300   0.050594703   -6.6989092      0.075873081   -6.6230361    
      8400   0.051521469   -6.7002914      0.077262883   -6.6230285    
      8500   0.051517468   -6.7002572      0.077256882   -6.6230004    
      8600   0.051071929   -6.699728       0.076588741   -6.6231392    
      8700   0.050159166   -6.6982728      0.075219939   -6.6230529    
      8800   0.050931063   -6.6993614      0.076377496   -6.6229839    
      8900   0.051719294   -6.7006339      0.077559547   -6.6230744    
      9000   0.051608657   -6.7004103      0.077393633   -6.6230167    
      9100   0.050679041   -6.6989667      0.075999557   -6.6229672    
      9200   0.050244779   -6.6983348      0.075348326   -6.6229865    
      9300   0.051438532   -6.700171       0.077138508   -6.6230325    
      9400   0.05010328    -6.6981802      0.075136131   -6.623044     
      9500   0.051026423   -6.6995648      0.0765205     -6.6230443    
      9600   0.051464188   -6.7001444      0.077176983   -6.6229674    
      9700   0.051452001   -6.7002074      0.077158707   -6.6230487    
      9800   0.051330808   -6.7000094      0.076976963   -6.6230324    
      9900   0.051030605   -6.6995632      0.07652677    -6.6230365    
     10000   0.051288872   -6.6999626      0.076914074   -6.6230485    
Loop time of 20.4925 on 1 procs for 10000 steps with 4000 atoms

Performance: 210808.771 tau/day, 487.983 timesteps/s, 1.952 Matom-step/s
53.0% CPU use with 1 MPI tasks x 1 OpenMP threads

MPI task timing breakdown:
Section |  min time  |  avg time  |  max time  |%varavg| %total
---------------------------------------------------------------
Pair    | 16.677     | 16.677     | 16.677     |   0.0 | 81.38
Neigh   | 1.5595     | 1.5595     | 1.5595     |   0.0 |  7.61
Comm    | 0.49052    | 0.49052    | 0.49052    |   0.0 |  2.39
Output  | 1.0348     | 1.0348     | 1.0348     |   0.0 |  5.05
Modify  | 0.48564    | 0.48564    | 0.48564    |   0.0 |  2.37
Other   |            | 0.2453     |            |       |  1.20

Nlocal:           4000 ave        4000 max        4000 min
Histogram: 1 0 0 0 0 0 0 0 0 0
Nghost:           5841 ave        5841 max        5841 min
Histogram: 1 0 0 0 0 0 0 0 0 0
Neighs:         156047 ave      156047 max      156047 min
Histogram: 1 0 0 0 0 0 0 0 0 0

Total # of neighbors = 156047
Ave neighs/atom = 39.01175
Neighbor list builds = 304
Dangerous builds = 0


# variable temp equal ramp(0.1, 2.0)                  # Define a variable for the temperature ramp


# # >>>>>>>>>>> SECOND RUN <<<<<<<<<<<<<<<<<<<<<<<<
fix 2 all langevin  0.1 2.0 1.0 87287        # Apply the Langevin thermostat with a time-dependent temperature
run 50000  # Run the simulation while increasing the temperature
Generated 0 of 0 mixed pair_coeff terms from geometric mixing rule
Per MPI rank memory allocation (min/avg/max) = 5.073 | 5.073 | 5.073 Mbytes
   Step          Temp          PotEng         KinEng         TotEng    
     10000   0.051288872   -6.6999626      0.076914074   -6.6230485    
     10100   0.071431227   -6.6709205      0.10712005    -6.5638005    
     10200   0.086294031   -6.6530028      0.12940869    -6.5235941    
     10300   0.095413431   -6.6363227      0.14308437    -6.4932383    
     10400   0.1041571     -6.6268704      0.15619659    -6.4706738    
     10500   0.10981015    -6.6204381      0.16467404    -6.4557641    
     10600   0.11584658    -6.6145801      0.17372643    -6.4408537    
     10700   0.11874282    -6.6073457      0.17806971    -6.429276     
     10800   0.12172159    -6.6064333      0.18253674    -6.4238966    
     10900   0.1272921     -6.6037393      0.19089042    -6.4128489    
     11000   0.1304003     -6.5932206      0.19555155    -6.397669     
     11100   0.13394585    -6.5891792      0.20086854    -6.3883106    
     11200   0.1362839     -6.5858264      0.20437474    -6.3814517    
     11300   0.14291038    -6.5818299      0.21431198    -6.3675179    
     11400   0.14769218    -6.5770338      0.22148289    -6.3555509    
     11500   0.15119135    -6.5682315      0.22673033    -6.3415011    
     11600   0.15510152    -6.5654814      0.23259412    -6.3328873    
     11700   0.15599173    -6.5596728      0.2339291     -6.3257437    
     11800   0.15803903    -6.5537471      0.23699929    -6.3167478    
     11900   0.16735628    -6.5488888      0.25097167    -6.2979172    
     12000   0.17139456    -6.5479637      0.25702756    -6.2909362    
     12100   0.16901577    -6.5337752      0.25346028    -6.2803149    
     12200   0.17861037    -6.5379351      0.26784857    -6.2700865    
     12300   0.17888547    -6.526006       0.26826112    -6.2577449    
     12400   0.18237856    -6.5260533      0.27349945    -6.2525538    
     12500   0.18500361    -6.5181808      0.27743603    -6.2407448    
     12600   0.19082775    -6.5190842      0.28617007    -6.2329141    
     12700   0.19311006    -6.5108737      0.28959267    -6.221281     
     12800   0.19978754    -6.5127723      0.29960639    -6.2131659    
     12900   0.20826575    -6.5030045      0.31232053    -6.190684     
     13000   0.20985917    -6.4976152      0.31471007    -6.1829051    
     13100   0.21414882    -6.4897915      0.32114293    -6.1686486    
     13200   0.21833169    -6.491077       0.32741566    -6.1636613    
     13300   0.21424131    -6.4842148      0.32128163    -6.1629332    
     13400   0.22698057    -6.4755336      0.34038574    -6.1351479    
     13500   0.23623539    -6.4744529      0.3542645     -6.1201884    
     13600   0.23389718    -6.471885       0.35075805    -6.1211269    
     13700   0.23143134    -6.4590245      0.34706022    -6.1119643    
     13800   0.23830929    -6.4658392      0.35737457    -6.1084647    
     13900   0.23673553    -6.4539242      0.35501453    -6.0989096    
     14000   0.24363911    -6.4575879      0.36536731    -6.0922206    
     14100   0.24631408    -6.4507297      0.36937875    -6.0813509    
     14200   0.2564746     -6.4472256      0.38461572    -6.0626099    
     14300   0.25622773    -6.4352606      0.38424551    -6.0510151    
     14400   0.26175126    -6.4311712      0.39252873    -6.0386424    
     14500   0.26330673    -6.426819       0.39486136    -6.0319577    
     14600   0.26576745    -6.4225007      0.39855152    -6.0239491    
     14700   0.27398463    -6.4144507      0.41087421    -6.0035765    
     14800   0.27782366    -6.4177052      0.41663131    -6.0010739    
     14900   0.28232378    -6.4118607      0.4233798     -5.9884809    
     15000   0.27953322    -6.4033983      0.419195      -5.9842033    
     15100   0.2805616     -6.4032302      0.42073719    -5.982493     
     15200   0.29022573    -6.3964816      0.43522976    -5.9612519    
     15300   0.2976197     -6.3973941      0.44631794    -5.9510761    
     15400   0.29795317    -6.3852136      0.44681802    -5.9383955    
     15500   0.30175736    -6.3844605      0.45252289    -5.9319376    
     15600   0.30778588    -6.3728032      0.4615634     -5.9112398    
     15700   0.3090854     -6.3685937      0.46351219    -5.9050815    
     15800   0.31579369    -6.3629268      0.47357211    -5.8893547    
     15900   0.32216557    -6.3623925      0.48312755    -5.8792649    
     16000   0.32590369    -6.3610737      0.48873332    -5.8723404    
     16100   0.32677594    -6.367896       0.49004137    -5.8778546    
     16200   0.32618549    -6.3574696      0.48915591    -5.8683137    
     16300   0.33679837    -6.3575716      0.50507126    -5.8525004    
     16400   0.33470384    -6.3441095      0.50193025    -5.8421793    
     16500   0.33810073    -6.3497899      0.50702431    -5.8427656    
     16600   0.34282824    -6.3348592      0.5141138     -5.8207454    
     16700   0.3476586     -6.328396       0.52135753    -5.8070385    
     16800   0.35940607    -6.3233295      0.53897432    -5.7843552    
     16900   0.36237444    -6.3318007      0.54342577    -5.788375     
     17000   0.3522239     -6.3148857      0.52820377    -5.7866819    
     17100   0.36107903    -6.3050289      0.54148314    -5.7635457    
     17200   0.37248037    -6.3088903      0.55858088    -5.7503094    
     17300   0.37247316    -6.3045686      0.55857006    -5.7459985    
     17400   0.3775327     -6.3046042      0.56615748    -5.7384468    
     17500   0.38527973    -6.2930919      0.57777512    -5.7153168    
     17600   0.38100121    -6.2940263      0.57135893    -5.7226674    
     17700   0.37996455    -6.284956       0.56980434    -5.7151516    
     17800   0.37912434    -6.2727222      0.56854433    -5.7041779    
     17900   0.38930029    -6.2791461      0.58380444    -5.6953417    
     18000   0.39651905    -6.2682657      0.59462987    -5.6736359    
     18100   0.40032881    -6.2813563      0.60034309    -5.6810132    
     18200   0.4065054     -6.269747       0.60960565    -5.6601413    
     18300   0.41106856    -6.247661       0.61644868    -5.6312123    
     18400   0.42053684    -6.2497481      0.63064756    -5.6191005    
     18500   0.42119543    -6.2579811      0.6316352     -5.6263459    
     18600   0.41216611    -6.2505668      0.6180946     -5.6324722    
     18700   0.42305005    -6.2352197      0.63441642    -5.6008033    
     18800   0.42544213    -6.2464896      0.63800365    -5.608486     
     18900   0.42564444    -6.2357501      0.63830704    -5.597443     
     19000   0.43114726    -6.2327049      0.64655921    -5.5861457    
     19100   0.43883539    -6.2268604      0.65808852    -5.5687719    
     19200   0.44365013    -6.2224397      0.66530883    -5.5571308    
     19300   0.45551198    -6.2123544      0.68309715    -5.5292572    
     19400   0.45513275    -6.1978778      0.68252844    -5.5153493    
     19500   0.46392691    -6.2051773      0.69571639    -5.5094609    
     19600   0.46421393    -6.1889229      0.69614681    -5.4927761    
     19700   0.46302525    -6.1879796      0.69436424    -5.4936154    
     19800   0.47527798    -6.1842821      0.71273874    -5.4715434    
     19900   0.47533151    -6.1846287      0.71281901    -5.4718097    
     20000   0.47440078    -6.1895444      0.71142326    -5.4781212    
     20100   0.48719931    -6.174919       0.73061627    -5.4443028    
     20200   0.48883689    -6.1825782      0.73307203    -5.4495062    
     20300   0.47274079    -6.1764028      0.7089339     -5.4674688    
     20400   0.48690815    -6.1733111      0.73017963    -5.4431315    
     20500   0.49090085    -6.1589062      0.73616719    -5.422739     
     20600   0.49691523    -6.1621257      0.7451865     -5.4169392    
     20700   0.49181919    -6.1614975      0.73754436    -5.4239532    
     20800   0.50700097    -6.1615982      0.76031133    -5.4012869    
     20900   0.50392733    -6.1523549      0.75570202    -5.3966529    
     21000   0.51017556    -6.1418521      0.76507203    -5.3767801    
     21100   0.51309478    -6.1217385      0.76944976    -5.3522887    
     21200   0.52050948    -6.1249014      0.78056903    -5.3443324    
     21300   0.52687394    -6.1293233      0.79011334    -5.3392099    
     21400   0.52762545    -6.1236357      0.79124032    -5.3323954    
     21500   0.53684403    -6.1227627      0.80506473    -5.317698     
     21600   0.53012112    -6.1136157      0.79498288    -5.3186329    
     21700   0.53620902    -6.1273797      0.80411245    -5.3232673    
     21800   0.53862573    -6.0960647      0.80773662    -5.288328     
     21900   0.53609008    -6.1047675      0.80393409    -5.3008334    
     22000   0.54070052    -6.0965958      0.81084802    -5.2857478    
     22100   0.54399662    -6.0912472      0.81579094    -5.2754562    
     22200   0.5608301     -6.0745206      0.84103484    -5.2334857    
     22300   0.56528294    -6.0855793      0.84771243    -5.2378668    
     22400   0.56854392    -6.080374       0.85260268    -5.2277713    
     22500   0.5722278     -6.0754547      0.85812711    -5.2173276    
     22600   0.57036234    -6.0839188      0.85532962    -5.2285892    
     22700   0.5810712     -6.0626939      0.8713889     -5.191305     
     22800   0.56540636    -6.0452465      0.84789752    -5.197349     
     22900   0.58461938    -6.0465996      0.87670984    -5.1698898    
     23000   0.58989715    -6.0311605      0.88462451    -5.146536     
     23100   0.5877976     -6.0404361      0.88147598    -5.1589602    
     23200   0.60216583    -6.0178843      0.90302293    -5.1148614    
     23300   0.60241184    -6.0160143      0.90339185    -5.1126224    
     23400   0.59233189    -6.0234971      0.88827571    -5.1352213    
     23500   0.59500172    -6.0130398      0.89227945    -5.1207604    
     23600   0.59636529    -5.9975699      0.8943243     -5.1032456    
     23700   0.60974909    -5.9983631      0.91439498    -5.0839681    
     23800   0.6104454     -5.988345       0.91543919    -5.0729058    
     23900   0.6105577     -6.003565       0.9156076     -5.0879574    
     24000   0.61441015    -5.9855688      0.92138483    -5.064184     
     24100   0.61919003    -5.9783127      0.92855285    -5.0497599    
     24200   0.61820037    -5.9838914      0.92706873    -5.0568226    
     24300   0.632109      -5.9661383      0.94792646    -5.0182119    
     24400   0.63742032    -5.9627551      0.95589145    -5.0068636    
     24500   0.63760468    -5.9261305      0.95616792    -4.9699626    
     24600   0.64189656    -5.923698       0.96260413    -4.9610939    
     24700   0.65806363    -5.9184021      0.98684867    -4.9315535    
     24800   0.65112643    -5.9335578      0.97644548    -4.9571123    
     24900   0.65491276    -5.9107785      0.98212355    -4.9286549    
     25000   0.66569973    -5.8924331      0.99829996    -4.8941332    
     25100   0.66675103    -5.890167       0.99987651    -4.8902905    
     25200   0.65722012    -5.8634272      0.98558373    -4.8778434    
     25300   0.66369419    -5.8611126      0.9952924     -4.8658202    
     25400   0.67859108    -5.8524086      1.0176321     -4.8347764    
     25500   0.66928113    -5.8234796      1.0036707     -4.8198089    
     25600   0.67510063    -5.8313895      1.0123978     -4.8189918    
     25700   0.67509701    -5.8114347      1.0123924     -4.7990424    
     25800   0.69211438    -5.8129782      1.037912      -4.7750662    
     25900   0.70025427    -5.7951972      1.0501188     -4.7450784    
     26000   0.68708454    -5.7887111      1.0303691     -4.758342     
     26100   0.69541845    -5.778868       1.0428669     -4.7360011    
     26200   0.71779248    -5.7724719      1.0764195     -4.6960524    
     26300   0.69526909    -5.7419946      1.0426429     -4.6993517    
     26400   0.70756872    -5.7345864      1.0610877     -4.6734987    
     26500   0.73093513    -5.7156579      1.0961286     -4.6195293    
     26600   0.71899489    -5.6947418      1.0782227     -4.6165191    
     26700   0.73462105    -5.6880952      1.1016561     -4.5864391    
     26800   0.74746955    -5.6832071      1.120924      -4.5622831    
     26900   0.73350526    -5.6652241      1.0999828     -4.5652413    
     27000   0.7365835     -5.6674038      1.104599      -4.5628048    
     27100   0.72349893    -5.6627562      1.0849771     -4.5777792    
     27200   0.7440572     -5.6553471      1.1158068     -4.5395403    
     27300   0.73725848    -5.6452994      1.1056112     -4.5396882    
     27400   0.7509745     -5.6227201      1.1261801     -4.4965399    
     27500   0.76889181    -5.6032539      1.1530494     -4.4502045    
     27600   0.77177368    -5.5982489      1.1573711     -4.4408778    
     27700   0.7653881     -5.5927864      1.1477951     -4.4449912    
     27800   0.7585432     -5.6180849      1.1375303     -4.4805545    
     27900   0.7580588     -5.578733       1.1368039     -4.4419291    
     28000   0.76752482    -5.5954172      1.1509994     -4.4444178    
     28100   0.77621223    -5.5694304      1.1640273     -4.4054031    
     28200   0.78138077    -5.5626716      1.1717781     -4.3908935    
     28300   0.77557073    -5.5510866      1.1630653     -4.3880214    
     28400   0.78381669    -5.5649203      1.1754311     -4.3894892    
     28500   0.7890964     -5.5432749      1.1833487     -4.3599262    
     28600   0.78604672    -5.5407579      1.1787753     -4.3619826    
     28700   0.7896983     -5.540696       1.1842513     -4.3564447    
     28800   0.82019891    -5.5479387      1.2299908     -4.3179479    
     28900   0.80914472    -5.5155601      1.2134137     -4.3021464    
     29000   0.83215003    -5.5340896      1.247913      -4.2861766    
     29100   0.81324938    -5.5146023      1.2195691     -4.2950332    
     29200   0.81929208    -5.5211081      1.2286309     -4.2924772    
     29300   0.83259105    -5.5147814      1.2485744     -4.2662071    
     29400   0.83062812    -5.521541       1.2456307     -4.2759103    
     29500   0.83601782    -5.5377047      1.2537132     -4.2839915    
     29600   0.83338434    -5.5161114      1.249764      -4.2663474    
     29700   0.8397798     -5.4974444      1.2593548     -4.2380896    
     29800   0.87013919    -5.4859898      1.3048825     -4.1811074    
     29900   0.87611439    -5.4850769      1.313843      -4.1712339    
     30000   0.84292964    -5.4601926      1.2640784     -4.1961143    
     30100   0.83559278    -5.4713705      1.2530758     -4.2182947    
     30200   0.84151306    -5.4821248      1.261954      -4.2201708    
     30300   0.86120778    -5.4910187      1.2914887     -4.19953      
     30400   0.87517318    -5.4785441      1.3124316     -4.1661125    
     30500   0.86936169    -5.4630526      1.3037165     -4.1593361    
     30600   0.89258197    -5.4668392      1.3385382     -4.128301     
     30700   0.88464965    -5.4639086      1.3266427     -4.1372659    
     30800   0.89788254    -5.4847434      1.3464871     -4.1382563    
     30900   0.88823346    -5.4461384      1.3320171     -4.1141213    
     31000   0.89375667    -5.4512148      1.3402998     -4.1109149    
     31100   0.90600294    -5.4478557      1.3586647     -4.0891911    
     31200   0.88954554    -5.4455858      1.3339847     -4.111601     
     31300   0.92098463    -5.4498048      1.3811316     -4.0686733    
     31400   0.91137345    -5.4386561      1.3667184     -4.0719377    
     31500   0.92867927    -5.4732873      1.3926706     -4.0806167    
     31600   0.9162104     -5.4159083      1.373972      -4.0419363    
     31700   0.92485809    -5.4386747      1.3869403     -4.0517344    
     31800   0.94605234    -5.4490017      1.4187237     -4.030278     
     31900   0.91426543    -5.4276645      1.3710553     -4.0566093    
     32000   0.9244549     -5.4123697      1.3863357     -4.026034     
     32100   0.92620164    -5.4076518      1.3889551     -4.0186967    
     32200   0.92367663    -5.4042472      1.3851686     -4.0190787    
     32300   0.94323391    -5.4050679      1.4144971     -3.9905708    
     32400   0.96603617    -5.4092123      1.448692      -3.9605203    
     32500   0.95144801    -5.4090381      1.4268152     -3.9822228    
     32600   0.95043864    -5.399974       1.4253016     -3.9746725    
     32700   0.95834765    -5.3901587      1.4371621     -3.9529966    
     32800   0.95720143    -5.3924996      1.4354432     -3.9570564    
     32900   0.96076815    -5.3750936      1.4407919     -3.9343017    
     33000   0.97433341    -5.3781748      1.4611347     -3.91704      
     33100   0.96820592    -5.3671112      1.4519458     -3.9151654    
     33200   0.96755053    -5.3651022      1.450963      -3.9141392    
     33300   0.96659085    -5.3568173      1.4495238     -3.9072935    
     33400   0.98341594    -5.3616106      1.4747551     -3.8868554    
     33500   1.0044399     -5.3476558      1.5062831     -3.8413727    
     33600   1.0000019     -5.3372889      1.4996278     -3.8376611    
     33700   1.0026974     -5.3398951      1.5036701     -3.836225     
     33800   0.98987763    -5.3102381      1.4844452     -3.8257929    
     33900   1.0120093     -5.332447       1.5176345     -3.8148125    
     34000   0.98077628    -5.3088994      1.4707966     -3.8381027    
     34100   0.99695236    -5.3208233      1.4950547     -3.8257686    
     34200   1.0315922     -5.3261548      1.5470014     -3.7791534    
     34300   1.0188458     -5.3058493      1.5278866     -3.7779627    
     34400   1.0477695     -5.346421       1.5712613     -3.7751597    
     34500   1.0283008     -5.3064897      1.5420656     -3.7644241    
     34600   1.0168425     -5.3301272      1.5248825     -3.8052447    
     34700   1.0264847     -5.3096768      1.5393422     -3.7703346    
     34800   1.035164      -5.3039964      1.5523578     -3.7516386    
     34900   1.0312601     -5.2839         1.5465034     -3.7373966    
     35000   1.0371137     -5.2860323      1.5552816     -3.7307508    
     35100   1.0463135     -5.2957593      1.5690779     -3.7266814    
     35200   1.0550544     -5.3167649      1.582186      -3.7345789    
     35300   1.0406636     -5.3039733      1.5606051     -3.7433681    
     35400   1.034147      -5.2849249      1.5508327     -3.7340922    
     35500   1.0627089     -5.2922476      1.5936649     -3.6985827    
     35600   1.0653702     -5.2701841      1.5976558     -3.6725283    
     35700   1.064896      -5.2848643      1.5969447     -3.6879196    
     35800   1.0519354     -5.2999542      1.5775086     -3.7224456    
     35900   1.0836282     -5.2831314      1.625036      -3.6580954    
     36000   1.0766272     -5.2706113      1.614537      -3.6560743    
     36100   1.0951698     -5.2844596      1.642344      -3.6421155    
     36200   1.0890742     -5.2568468      1.633203      -3.6236438    
     36300   1.0859219     -5.23606        1.6284756     -3.6075844    
     36400   1.087848      -5.240555       1.6313641     -3.6091909    
     36500   1.1066358     -5.2568606      1.6595387     -3.5973219    
     36600   1.0964055     -5.2397168      1.644197      -3.5955197    
     36700   1.0955351     -5.2592751      1.6428919     -3.6163833    
     36800   1.0872566     -5.2434863      1.6304773     -3.613009     
     36900   1.1203848     -5.2453741      1.680157      -3.5652171    
     37000   1.115707      -5.2213193      1.6731421     -3.5481771    
     37100   1.1289064     -5.2236198      1.6929363     -3.5306835    
     37200   1.1212538     -5.2093216      1.6814602     -3.5278614    
     37300   1.1472827     -5.2412215      1.7204938     -3.5207278    
     37400   1.1257535     -5.2254385      1.688208      -3.5372305    
     37500   1.123448      -5.2103281      1.6847507     -3.5255774    
     37600   1.1282342     -5.1780434      1.6919281     -3.4861153    
     37700   1.177574      -5.2069531      1.7659194     -3.4410337    
     37800   1.1512899     -5.1734098      1.7265031     -3.4469067    
     37900   1.1600678     -5.1594083      1.7396667     -3.4197416    
     38000   1.1605206     -5.1786972      1.7403456     -3.4383515    
     38100   1.1539903     -5.1707474      1.7305527     -3.4401947    
     38200   1.1444142     -5.1688674      1.7161922     -3.4526752    
     38300   1.1408346     -5.1914184      1.7108241     -3.4805943    
     38400   1.1574254     -5.1933186      1.735704      -3.4576146    
     38500   1.1840204     -5.1899961      1.7755867     -3.4144094    
     38600   1.1634729     -5.1566117      1.744773      -3.4118387    
     38700   1.188687      -5.151015       1.7825848     -3.3684302    
     38800   1.2048075     -5.2040854      1.8067594     -3.3973259    
     38900   1.2045845     -5.1483148      1.806425      -3.3418898    
     39000   1.2016868     -5.1577499      1.8020796     -3.3556703    
     39100   1.2083349     -5.1517313      1.8120493     -3.339682     
     39200   1.216365      -5.1289504      1.8240913     -3.3048591    
     39300   1.2235641     -5.1430979      1.8348873     -3.3082106    
     39400   1.2152826     -5.1401937      1.8224681     -3.3177256    
     39500   1.2211546     -5.1433524      1.831274      -3.3120784    
     39600   1.2325455     -5.1242325      1.848356      -3.2758764    
     39700   1.2406058     -5.1322754      1.8604435     -3.2718319    
     39800   1.2451778     -5.1095677      1.8672997     -3.2422679    
     39900   1.2656576     -5.1228726      1.8980118     -3.2248608    
     40000   1.239379      -5.0977483      1.8586038     -3.2391445    
     40100   1.2435112     -5.0879533      1.8648005     -3.2231528    
     40200   1.2665891     -5.1162244      1.8994087     -3.2168157    
     40300   1.2690416     -5.1128828      1.9030866     -3.2097962    
     40400   1.2601974     -5.0917759      1.8898235     -3.2019524    
     40500   1.2657003     -5.0824592      1.8980758     -3.1843834    
     40600   1.2706976     -5.0664075      1.9055698     -3.1608377    
     40700   1.2695159     -5.1247248      1.9037978     -3.220927     
     40800   1.2534531     -5.0803481      1.8797096     -3.2006385    
     40900   1.2545394     -5.0766299      1.8813387     -3.1952913    
     41000   1.2850294     -5.0755142      1.9270622     -3.148452     
     41100   1.258701      -5.0679426      1.8875795     -3.180363     
     41200   1.24371       -5.0656562      1.8650986     -3.2005575    
     41300   1.2790916     -5.0663946      1.9181578     -3.1482369    
     41400   1.2911714     -5.1059116      1.936273      -3.1696386    
     41500   1.2925591     -5.086712       1.938354      -3.1483581    
     41600   1.262775      -5.0594836      1.893689      -3.1657947    
     41700   1.2983061     -5.0657902      1.9469723     -3.1188179    
     41800   1.3155175     -5.0508337      1.9727829     -3.0780508    
     41900   1.3253519     -5.0524424      1.9875309     -3.0649116    
     42000   1.3449805     -5.0296416      2.0169664     -3.0126751    
     42100   1.3157379     -5.0085845      1.9731134     -3.0354712    
     42200   1.3288509     -5.0774072      1.9927781     -3.0846291    
     42300   1.2985976     -5.0406876      1.9474094     -3.0932782    
     42400   1.3019151     -5.0432306      1.9523845     -3.0908461    
     42500   1.3277431     -5.0295988      1.9911168     -3.038482     
     42600   1.3054405     -5.0182202      1.9576712     -3.060549     
     42700   1.3147788     -5.0075628      1.9716751     -3.0358877    
     42800   1.3596585     -5.035443       2.0389779     -2.9964651    
     42900   1.3322853     -4.9726512      1.9979284     -2.9747228    
     43000   1.3535528     -4.9894365      2.0298216     -2.9596149    
     43100   1.3861644     -5.0585827      2.0787268     -2.979856     
     43200   1.3328398     -4.9909326      1.9987598     -2.9921727    
     43300   1.3488689     -5.0227927      2.0227976     -2.9999951    
     43400   1.337804      -5.0104716      2.0062044     -3.0042672    
     43500   1.3466315     -4.9782998      2.0194423     -2.9588576    
     43600   1.3684513     -5.0123761      2.0521638     -2.9602123    
     43700   1.3786067     -5.033689       2.0673931     -2.9662959    
     43800   1.3835064     -4.9752652      2.0747408     -2.9005244    
     43900   1.3785721     -4.9713749      2.0673412     -2.9040337    
     44000   1.3893594     -4.9902511      2.0835181     -2.9067329    
     44100   1.4010363     -4.967766       2.101029      -2.8667369    
     44200   1.4004647     -4.9285353      2.1001719     -2.8283635    
     44300   1.3911729     -4.9468835      2.0862377     -2.8606458    
     44400   1.4119087     -4.9277841      2.1173336     -2.8104505    
     44500   1.393301      -4.9112189      2.0894291     -2.8217898    
     44600   1.4354478     -4.9300707      2.1526333     -2.7774374    
     44700   1.4287699     -4.9449821      2.1426191     -2.802363     
     44800   1.417425      -4.9531241      2.125606      -2.8275181    
     44900   1.4449896     -4.9505548      2.1669426     -2.7836122    
     45000   1.4644208     -4.9408496      2.196082      -2.7447676    
     45100   1.4686246     -4.9382142      2.2023861     -2.7358281    
     45200   1.4632895     -4.9307141      2.1943854     -2.7363287    
     45300   1.4371007     -4.9261259      2.1551121     -2.7710138    
     45400   1.4508774     -4.9442958      2.175772      -2.7685239    
     45500   1.4120942     -4.9236661      2.1176117     -2.8060543    
     45600   1.4368867     -4.9238068      2.1547912     -2.7690156    
     45700   1.4742816     -4.9155838      2.2108696     -2.7047142    
     45800   1.4085524     -4.8622967      2.1123004     -2.7499962    
     45900   1.4430399     -4.9317087      2.1640188     -2.7676899    
     46000   1.4575312     -4.8869768      2.1857503     -2.7012266    
     46100   1.4886887     -4.8827489      2.2324748     -2.6502742    
     46200   1.4739575     -4.8835742      2.2103835     -2.6731906    
     46300   1.5288236     -4.886383       2.292662      -2.593721     
     46400   1.5265603     -4.8654907      2.289268      -2.5762227    
     46500   1.5074368     -4.8801873      2.26059       -2.6195973    
     46600   1.4760345     -4.8823913      2.2134982     -2.668893     
     46700   1.4955714     -4.8563665      2.2427963     -2.6135702    
     46800   1.4688984     -4.8380232      2.2027968     -2.6352264    
     46900   1.458098      -4.8641481      2.1866002     -2.6775479    
     47000   1.462501      -4.8842728      2.1932031     -2.6910697    
     47100   1.520245      -4.8633751      2.2797974     -2.5835777    
     47200   1.4994198     -4.8767941      2.2485675     -2.6282266    
     47300   1.4861574     -4.8997365      2.2286788     -2.6710578    
     47400   1.5065436     -4.8761266      2.2592505     -2.616876     
     47500   1.5306408     -4.876195       2.2953872     -2.5808079    
     47600   1.5311569     -4.9084039      2.2961611     -2.6122427    
     47700   1.5459618     -4.8082806      2.318363      -2.4899177    
     47800   1.5474765     -4.8438155      2.3206344     -2.5231811    
     47900   1.5445525     -4.8315827      2.3162495     -2.5153332    
     48000   1.5367388     -4.8497856      2.3045319     -2.5452536    
     48100   1.5410538     -4.8133986      2.3110028     -2.5023958    
     48200   1.5021994     -4.8036625      2.2527357     -2.5509268    
     48300   1.5223358     -4.8683094      2.2829327     -2.5853766    
     48400   1.5476996     -4.8393998      2.3209691     -2.5184307    
     48500   1.5917959     -4.824537       2.3870969     -2.4374402    
     48600   1.5791806     -4.8217643      2.3681786     -2.4535857    
     48700   1.5814045     -4.7917385      2.3715137     -2.4202248    
     48800   1.5708703     -4.776531       2.3557164     -2.4208146    
     48900   1.551374      -4.7997563      2.3264793     -2.4732771    
     49000   1.584011      -4.8156616      2.3754226     -2.440239     
     49100   1.576506      -4.8201061      2.3641678     -2.4559383    
     49200   1.5905446     -4.8027257      2.3852205     -2.4175051    
     49300   1.5944913     -4.8095324      2.391139      -2.4183934    
     49400   1.6012429     -4.7943527      2.4012639     -2.3930888    
     49500   1.5832913     -4.7970774      2.3743431     -2.4227343    
     49600   1.5854147     -4.7972699      2.3775275     -2.4197424    
     49700   1.5617017     -4.8198547      2.3419669     -2.4778879    
     49800   1.6062522     -4.8158919      2.4087759     -2.407116     
     49900   1.605531      -4.7983988      2.4076945     -2.3907043    
     50000   1.5964218     -4.837558       2.3940341     -2.4435239    
     50100   1.642483      -4.7838537      2.4631085     -2.3207452    
     50200   1.6625545     -4.7861267      2.4932083     -2.2929183    
     50300   1.609317      -4.7383638      2.413372      -2.3249918    
     50400   1.6266557     -4.755341       2.4393736     -2.3159674    
     50500   1.6154113     -4.8078374      2.4225112     -2.3853262    
     50600   1.5881031     -4.7909615      2.3815591     -2.4094025    
     50700   1.6033811     -4.7337671      2.4044704     -2.3292966    
     50800   1.6201801     -4.7488393      2.4296626     -2.3191767    
     50900   1.6443251     -4.801583       2.4658711     -2.3357119    
     51000   1.6517898     -4.7562062      2.4770652     -2.2791409    
     51100   1.666606      -4.6854871      2.499284      -2.1862031    
     51200   1.699935      -4.7630947      2.5492651     -2.2138296    
     51300   1.6730715     -4.698364       2.5089799     -2.1893841    
     51400   1.6956025     -4.7322577      2.5427679     -2.1894897    
     51500   1.6909003     -4.6962556      2.5357163     -2.1605393    
     51600   1.6612392     -4.6918235      2.4912359     -2.2005876    
     51700   1.686724      -4.7078721      2.5294536     -2.1784185    
     51800   1.6824582     -4.7222865      2.5230564     -2.1992301    
     51900   1.7057858     -4.7107292      2.558039      -2.1526902    
     52000   1.7005141     -4.6813997      2.5501334     -2.1312663    
     52100   1.7238985     -4.7406488      2.5852014     -2.1554475    
     52200   1.6750403     -4.6923992      2.5119323     -2.1804669    
     52300   1.7112954     -4.7390932      2.5663014     -2.1727918    
     52400   1.7018484     -4.6680449      2.5521344     -2.1159105    
     52500   1.7112555     -4.6575925      2.5662415     -2.091351     
     52600   1.694356      -4.656657       2.5408987     -2.1157583    
     52700   1.7153318     -4.6935602      2.5723545     -2.1212058    
     52800   1.7517422     -4.684967       2.6269564     -2.0580107    
     52900   1.7275786     -4.6192895      2.5907201     -2.0285695    
     53000   1.7444236     -4.6633602      2.6159813     -2.047379     
     53100   1.7264079     -4.6176583      2.5889644     -2.0286939    
     53200   1.7335258     -4.6421518      2.5996386     -2.0425132    
     53300   1.7357796     -4.6400676      2.6030185     -2.0370491    
     53400   1.74473       -4.6849847      2.6164408     -2.068544     
     53500   1.7866687     -4.6799495      2.679333      -2.0006165    
     53600   1.7730181     -4.6773534      2.6588623     -2.0184911    
     53700   1.752754      -4.6223784      2.6284737     -1.9939047    
     53800   1.7685089     -4.669884       2.6521002     -2.0177838    
     53900   1.7626979     -4.6640018      2.6433859     -2.0206159    
     54000   1.7519485     -4.6347812      2.6272658     -2.0075154    
     54100   1.8029933     -4.6521526      2.7038138     -1.9483387    
     54200   1.7741287     -4.6059015      2.6605278     -1.9453737    
     54300   1.7726866     -4.6612709      2.6583651     -2.0029058    
     54400   1.8104092     -4.6673474      2.714935      -1.9524125    
     54500   1.7896948     -4.6082771      2.6838711     -1.924406     
     54600   1.7947558     -4.585705       2.6914606     -1.8942444    
     54700   1.7876148     -4.6315099      2.6807518     -1.950758     
     54800   1.7626479     -4.6188221      2.6433108     -1.9755113    
     54900   1.7592178     -4.612868       2.638167      -1.974701     
     55000   1.7888143     -4.6363593      2.6825506     -1.9538087    
     55100   1.7664046     -4.591203       2.6489445     -1.9422585    
     55200   1.8204442     -4.5984524      2.7299836     -1.8684687    
     55300   1.8080757     -4.609131       2.7114355     -1.8976955    
     55400   1.8480736     -4.6291985      2.7714174     -1.857781     
     55500   1.8284506     -4.5956219      2.7419903     -1.8536317    
     55600   1.8247796     -4.560914       2.7364851     -1.8244289    
     55700   1.8744801     -4.5677833      2.8110172     -1.7567661    
     55800   1.8717147     -4.5923036      2.8068702     -1.7854334    
     55900   1.9004456     -4.5807159      2.8499558     -1.7307601    
     56000   1.8749747     -4.5820048      2.8117589     -1.7702459    
     56100   1.8312375     -4.5728588      2.7461696     -1.8266892    
     56200   1.8439342     -4.6064557      2.7652098     -1.841246     
     56300   1.8261127     -4.5923585      2.7384842     -1.8538743    
     56400   1.8279971     -4.5279149      2.7413101     -1.7866049    
     56500   1.8722516     -4.5303196      2.8076754     -1.7226443    
     56600   1.8811078     -4.5886381      2.8209563     -1.7676817    
     56700   1.8658998     -4.5837102      2.7981499     -1.7855603    
     56800   1.9189279     -4.5604764      2.8776723     -1.6828042    
     56900   1.8786905     -4.5273451      2.8173312     -1.7100139    
     57000   1.889617      -4.5678229      2.8337169     -1.734106     
     57100   1.9064209     -4.5674041      2.8589165     -1.7084877    
     57200   1.933773      -4.5380107      2.8999344     -1.6380763    
     57300   1.8983012     -4.5161653      2.84674       -1.6694253    
     57400   1.8870637     -4.5326932      2.8298879     -1.7028054    
     57500   1.8989113     -4.5249261      2.8476548     -1.6772713    
     57600   1.8915778     -4.4935089      2.8366574     -1.6568515    
     57700   1.8909088     -4.5253206      2.8356541     -1.6896665    
     57800   1.9096442     -4.5381207      2.8637502     -1.6743705    
     57900   1.9191299     -4.5177121      2.8779752     -1.6397369    
     58000   1.9098287     -4.5086534      2.8640268     -1.6446265    
     58100   1.9323016     -4.5214329      2.8977279     -1.623705     
     58200   1.9190797     -4.4886163      2.8778998     -1.6107165    
     58300   1.9147887     -4.4770232      2.871465      -1.6055582    
     58400   1.9406847     -4.5446889      2.9102994     -1.6343895    
     58500   1.9043698     -4.50404        2.8558406     -1.6481993    
     58600   1.9363805     -4.482728       2.9038447     -1.5788833    
     58700   1.9387152     -4.4926512      2.9073458     -1.5853053    
     58800   1.9305179     -4.5165278      2.8950529     -1.6214749    
     58900   1.9432117     -4.4941767      2.9140888     -1.5800879    
     59000   1.9248922     -4.4704931      2.8866164     -1.5838767    
     59100   1.9934603     -4.484148       2.989443      -1.4947051    
     59200   1.9980449     -4.4988307      2.9963181     -1.5025126    
     59300   1.9951145     -4.5440155      2.9919236     -1.5520919    
     59400   1.9589195     -4.472842       2.9376447     -1.5351973    
     59500   1.9786591     -4.4491007      2.9672467     -1.481854     
     59600   1.9874855     -4.4358849      2.9804829     -1.455402     
     59700   1.9718543     -4.4289781      2.957042      -1.4719361    
     59800   1.9611384     -4.4423         2.9409721     -1.5013279    
     59900   2.010337      -4.4503287      3.0147517     -1.435577     
     60000   1.972057      -4.441949       2.957346      -1.484603     
Loop time of 169.933 on 1 procs for 50000 steps with 4000 atoms

Performance: 127109.070 tau/day, 294.234 timesteps/s, 1.177 Matom-step/s
62.7% CPU use with 1 MPI tasks x 1 OpenMP threads

MPI task timing breakdown:
Section |  min time  |  avg time  |  max time  |%varavg| %total
---------------------------------------------------------------
Pair    | 102.37     | 102.37     | 102.37     |   0.0 | 60.24
Neigh   | 44.045     | 44.045     | 44.045     |   0.0 | 25.92
Comm    | 3.3315     | 3.3315     | 3.3315     |   0.0 |  1.96
Output  | 5.8677     | 5.8677     | 5.8677     |   0.0 |  3.45
Modify  | 12.211     | 12.211     | 12.211     |   0.0 |  7.19
Other   |            | 2.104      |            |       |  1.24

Nlocal:           4000 ave        4000 max        4000 min
Histogram: 1 0 0 0 0 0 0 0 0 0
Nghost:           5461 ave        5461 max        5461 min
Histogram: 1 0 0 0 0 0 0 0 0 0
Neighs:         151725 ave      151725 max      151725 min
Histogram: 1 0 0 0 0 0 0 0 0 0

Total # of neighbors = 151725
Ave neighs/atom = 37.93125
Neighbor list builds = 6679
Dangerous builds = 0

# # >>>>>>>>>>> Third RUN <<<<<<<<<<<<<<<<<<<<<<<<
unfix 2   # Remove the Langevin thermostat and let the system evolve naturally
run 10000
Generated 0 of 0 mixed pair_coeff terms from geometric mixing rule
Per MPI rank memory allocation (min/avg/max) = 5.075 | 5.075 | 5.075 Mbytes
   Step          Temp          PotEng         KinEng         TotEng    
     60000   1.972057      -4.441949       2.957346      -1.484603     
     60100   1.99879       -4.4820808      2.9974354     -1.4846454    
     60200   1.994825      -4.4763534      2.9914894     -1.484864     
     60300   2.0040146     -4.4894875      3.0052704     -1.4842171    
     60400   1.9806782     -4.4551269      2.9702745     -1.4848523    
     60500   2.0110386     -4.5011168      3.0158038     -1.485313     
     60600   1.9957355     -4.4771567      2.9928548     -1.4843019    
     60700   1.976294      -4.4485459      2.9637        -1.4848459    
     60800   2.0000547     -4.4836992      2.999332      -1.4843672    
     60900   1.9881535     -4.4657928      2.9814847     -1.484308     
     61000   1.9557073     -4.4178869      2.9328276     -1.4850593    
     61100   1.97245       -4.4431744      2.9579353     -1.4852391    
     61200   2.0050278     -4.4915917      3.0067898     -1.4848019    
     61300   1.9570975     -4.4189441      2.9349123     -1.4840318    
     61400   1.981251      -4.4556437      2.9711336     -1.4845102    
     61500   2.0004464     -4.4842417      2.9999194     -1.4843222    
     61600   1.986159      -4.4632899      2.9784937     -1.4847961    
     61700   2.001071      -4.4857643      3.0008561     -1.4849081    
     61800   1.9786877     -4.4521976      2.9672896     -1.484908     
     61900   2.0024817     -4.4886579      3.0029717     -1.4856862    
     62000   2.0118893     -4.5018769      3.0170795     -1.4847974    
     62100   1.9715019     -4.4402676      2.9565136     -1.483754     
     62200   1.9862678     -4.4642617      2.9786568     -1.4856049    
     62300   2.0086113     -4.496998       3.0121638     -1.4848342    
     62400   2.011594      -4.5006603      3.0166367     -1.4840236    
     62500   1.9934463     -4.4741332      2.989422      -1.4847112    
     62600   1.9699731     -4.4387307      2.9542209     -1.4845098    
     62700   1.988226      -4.4672757      2.9815934     -1.4856823    
     62800   2.0073139     -4.4958547      3.0102182     -1.4856365    
     62900   1.9678551     -4.4353405      2.9510447     -1.4842958    
     63000   1.9495608     -4.4086575      2.9236101     -1.4850474    
     63100   1.9783687     -4.4511579      2.9668112     -1.4843466    
     63200   1.9837582     -4.4596864      2.9748935     -1.4847929    
     63300   1.9927554     -4.4730327      2.9883857     -1.4846469    
     63400   1.9533082     -4.4145321      2.9292297     -1.4853024    
     63500   1.9866021     -4.4636366      2.9791582     -1.4844784    
     63600   1.977768      -4.4509053      2.9659104     -1.4849949    
     63700   1.9710848     -4.4401625      2.955888      -1.4842745    
     63800   2.0053821     -4.4916524      3.0073211     -1.4843313    
     63900   1.9666609     -4.4330139      2.9492539     -1.4837601    
     64000   2.0067486     -4.4951104      3.0093704     -1.48574      
     64100   2.0008208     -4.4846717      3.0004809     -1.4841908    
     64200   1.9755295     -4.4471952      2.9625535     -1.4846418    
     64300   1.9759756     -4.4471361      2.9632224     -1.4839137    
     64400   1.9841839     -4.4606442      2.9755318     -1.4851124    
     64500   1.9525124     -4.4129251      2.9280365     -1.4848886    
     64600   1.9898855     -4.4687442      2.9840821     -1.4846621    
     64700   2.0033253     -4.4892458      3.0042366     -1.4850092    
     64800   1.999691      -4.4835745      2.9987867     -1.4847878    
     64900   1.9828611     -4.457897       2.973548      -1.484349     
     65000   1.9791393     -4.4522706      2.9679668     -1.4843039    
     65100   1.9613294     -4.4267906      2.9412586     -1.485532     
     65200   1.9872026     -4.4643065      2.9800586     -1.4842479    
     65300   1.9929161     -4.47271        2.9886268     -1.4840831    
     65400   1.9833217     -4.4591824      2.9742389     -1.4849436    
     65500   2.0203107     -4.5145266      3.0297084     -1.4848182    
     65600   1.9860497     -4.462915       2.9783298     -1.4845852    
     65700   2.0024242     -4.487439       3.0028854     -1.4845536    
     65800   1.9669518     -4.4344525      2.9496901     -1.4847623    
     65900   1.9961195     -4.4785144      2.9934307     -1.4850838    
     66000   2.0024768     -4.4879752      3.0029642     -1.485011     
     66100   1.9875764     -4.4656781      2.9806193     -1.4850588    
     66200   1.9722359     -4.4421451      2.9576143     -1.4845308    
     66300   1.9765216     -4.4482364      2.9640412     -1.4841952    
     66400   1.9595843     -4.4233579      2.9386415     -1.4847164    
     66500   1.9989278     -4.4825731      2.9976421     -1.484931     
     66600   1.9914024     -4.4710825      2.9863568     -1.4847256    
     66700   2.0065613     -4.4935405      3.0090895     -1.4844511    
     66800   1.9740198     -4.4450732      2.9602894     -1.4847838    
     66900   1.9855892     -4.4630942      2.9776391     -1.4854551    
     67000   1.9791911     -4.4522635      2.9680444     -1.4842191    
     67100   1.9953002     -4.4763374      2.9922021     -1.4841353    
     67200   2.0162453     -4.5077922      3.0236119     -1.4841803    
     67300   1.9831792     -4.4575403      2.9740251     -1.4835152    
     67400   2.025934      -4.5231351      3.0381413     -1.4849939    
     67500   1.9945409     -4.4764543      2.9910634     -1.4853909    
     67600   1.9897974     -4.4682279      2.9839499     -1.484278     
     67700   1.9833059     -4.4585263      2.9742151     -1.4843112    
     67800   2.0008062     -4.4857652      3.000459      -1.4853063    
     67900   1.9798834     -4.4543635      2.9690827     -1.4852808    
     68000   1.9837268     -4.4588014      2.9748463     -1.4839551    
     68100   1.9855837     -4.462406       2.977631      -1.484775     
     68200   2.0015561     -4.4860324      3.0015836     -1.4844488    
     68300   1.9969592     -4.4791803      2.9946899     -1.4844905    
     68400   1.9805618     -4.453988       2.9701        -1.4838879    
     68500   1.9818044     -4.4561713      2.9719635     -1.4842078    
     68600   1.9795036     -4.4535998      2.9685131     -1.4850867    
     68700   1.9870683     -4.4641248      2.9798573     -1.4842675    
     68800   1.9946536     -4.4763281      2.9912324     -1.4850958    
     68900   1.9885361     -4.4670841      2.9820584     -1.4850256    
     69000   1.9888215     -4.4671764      2.9824864     -1.48469      
     69100   1.9811017     -4.4546327      2.9709097     -1.4837229    
     69200   1.980516      -4.4547383      2.9700313     -1.484707     
     69300   1.9724589     -4.4429137      2.9579487     -1.484965     
     69400   1.9842401     -4.4604547      2.9756161     -1.4848386    
     69500   1.9891712     -4.4677971      2.9830108     -1.4847863    
     69600   1.9795016     -4.4525814      2.9685101     -1.4840713    
     69700   1.9825259     -4.4576172      2.9730454     -1.4845718    
     69800   2.0074455     -4.4950324      3.0104154     -1.484617     
     69900   2.0034638     -4.4887681      3.0044444     -1.4843237    
     70000   1.9887613     -4.4676758      2.9823961     -1.4852796    
Loop time of 32.9669 on 1 procs for 10000 steps with 4000 atoms

Performance: 131040.453 tau/day, 303.334 timesteps/s, 1.213 Matom-step/s
71.0% CPU use with 1 MPI tasks x 1 OpenMP threads

MPI task timing breakdown:
Section |  min time  |  avg time  |  max time  |%varavg| %total
---------------------------------------------------------------
Pair    | 18.874     | 18.874     | 18.874     |   0.0 | 57.25
Neigh   | 11.611     | 11.611     | 11.611     |   0.0 | 35.22
Comm    | 0.67524    | 0.67524    | 0.67524    |   0.0 |  2.05
Output  | 1.0462     | 1.0462     | 1.0462     |   0.0 |  3.17
Modify  | 0.45521    | 0.45521    | 0.45521    |   0.0 |  1.38
Other   |            | 0.3053     |            |       |  0.93

Nlocal:           4000 ave        4000 max        4000 min
Histogram: 1 0 0 0 0 0 0 0 0 0
Nghost:           5469 ave        5469 max        5469 min
Histogram: 1 0 0 0 0 0 0 0 0 0
Neighs:         152024 ave      152024 max      152024 min
Histogram: 1 0 0 0 0 0 0 0 0 0

Total # of neighbors = 152024
Ave neighs/atom = 38.006
Neighbor list builds = 1905
Dangerous builds = 0
Total wall time: 0:03:43
