(written by ASE)

224 atoms
2 atom types

0.0                      10  xlo xhi
0.0                      10  ylo yhi
0.0                      10  zlo zhi

Masses

     1      15.998999995884349 # O
     2      28.084999992775295 # Si

Atoms # charge

     1   2   2.4                       0                       0                       0
     2   2   2.4                       0                     2.5                     2.5
     3   2   2.4                     2.5                       0                     2.5
     4   2   2.4                     2.5                     2.5                       0
     5   1  -1.2                    1.25                     2.5                    3.75
     6   1  -1.2                    3.75                     2.5                    3.75
     7   1  -1.2                    3.75                     2.5                    1.25
     8   1  -1.2                    1.25                     2.5                    1.25
     9   1  -1.2                    3.75                    1.25                     2.5
    10   1  -1.2                    3.75                    3.75                     2.5
    11   1  -1.2                    1.25                    3.75                     2.5
    12   1  -1.2                    1.25                    1.25                     2.5
    13   1  -1.2                     2.5                    3.75                    1.25
    14   1  -1.2                     2.5                    3.75                    3.75
    15   1  -1.2                     2.5                    1.25                    3.75
    16   1  -1.2                     2.5                    1.25                    1.25
    17   1  -1.2                    1.25                       0                    1.25
    18   1  -1.2                    3.75                       0                    1.25
    19   1  -1.2                    3.75                       0                    3.75
    20   1  -1.2                    1.25                       0                    3.75
    21   1  -1.2                    3.75                    3.75                       0
    22   1  -1.2                    3.75                    1.25                       0
    23   1  -1.2                    1.25                    1.25                       0
    24   1  -1.2                    1.25                    3.75                       0
    25   1  -1.2                       0                    3.75                    3.75
    26   1  -1.2                       0                    3.75                    1.25
    27   1  -1.2                       0                    1.25                    1.25
    28   1  -1.2                       0                    1.25                    3.75
    29   2   2.4                       0                       0                       5
    30   2   2.4                       0                     2.5                     7.5
    31   2   2.4                     2.5                       0                     7.5
    32   2   2.4                     2.5                     2.5                       5
    33   1  -1.2                    1.25                     2.5                    8.75
    34   1  -1.2                    3.75                     2.5                    8.75
    35   1  -1.2                    3.75                     2.5                    6.25
    36   1  -1.2                    1.25                     2.5                    6.25
    37   1  -1.2                    3.75                    1.25                     7.5
    38   1  -1.2                    3.75                    3.75                     7.5
    39   1  -1.2                    1.25                    3.75                     7.5
    40   1  -1.2                    1.25                    1.25                     7.5
    41   1  -1.2                     2.5                    3.75                    6.25
    42   1  -1.2                     2.5                    3.75                    8.75
    43   1  -1.2                     2.5                    1.25                    8.75
    44   1  -1.2                     2.5                    1.25                    6.25
    45   1  -1.2                    1.25                       0                    6.25
    46   1  -1.2                    3.75                       0                    6.25
    47   1  -1.2                    3.75                       0                    8.75
    48   1  -1.2                    1.25                       0                    8.75
    49   1  -1.2                    3.75                    3.75                       5
    50   1  -1.2                    3.75                    1.25                       5
    51   1  -1.2                    1.25                    1.25                       5
    52   1  -1.2                    1.25                    3.75                       5
    53   1  -1.2                       0                    3.75                    8.75
    54   1  -1.2                       0                    3.75                    6.25
    55   1  -1.2                       0                    1.25                    6.25
    56   1  -1.2                       0                    1.25                    8.75
    57   2   2.4                       0                       5                       0
    58   2   2.4                       0                     7.5                     2.5
    59   2   2.4                     2.5                       5                     2.5
    60   2   2.4                     2.5                     7.5                       0
    61   1  -1.2                    1.25                     7.5                    3.75
    62   1  -1.2                    3.75                     7.5                    3.75
    63   1  -1.2                    3.75                     7.5                    1.25
    64   1  -1.2                    1.25                     7.5                    1.25
    65   1  -1.2                    3.75                    6.25                     2.5
    66   1  -1.2                    3.75                    8.75                     2.5
    67   1  -1.2                    1.25                    8.75                     2.5
    68   1  -1.2                    1.25                    6.25                     2.5
    69   1  -1.2                     2.5                    8.75                    1.25
    70   1  -1.2                     2.5                    8.75                    3.75
    71   1  -1.2                     2.5                    6.25                    3.75
    72   1  -1.2                     2.5                    6.25                    1.25
    73   1  -1.2                    1.25                       5                    1.25
    74   1  -1.2                    3.75                       5                    1.25
    75   1  -1.2                    3.75                       5                    3.75
    76   1  -1.2                    1.25                       5                    3.75
    77   1  -1.2                    3.75                    8.75                       0
    78   1  -1.2                    3.75                    6.25                       0
    79   1  -1.2                    1.25                    6.25                       0
    80   1  -1.2                    1.25                    8.75                       0
    81   1  -1.2                       0                    8.75                    3.75
    82   1  -1.2                       0                    8.75                    1.25
    83   1  -1.2                       0                    6.25                    1.25
    84   1  -1.2                       0                    6.25                    3.75
    85   2   2.4                       0                       5                       5
    86   2   2.4                       0                     7.5                     7.5
    87   2   2.4                     2.5                       5                     7.5
    88   2   2.4                     2.5                     7.5                       5
    89   1  -1.2                    1.25                     7.5                    8.75
    90   1  -1.2                    3.75                     7.5                    8.75
    91   1  -1.2                    3.75                     7.5                    6.25
    92   1  -1.2                    1.25                     7.5                    6.25
    93   1  -1.2                    3.75                    6.25                     7.5
    94   1  -1.2                    3.75                    8.75                     7.5
    95   1  -1.2                    1.25                    8.75                     7.5
    96   1  -1.2                    1.25                    6.25                     7.5
    97   1  -1.2                     2.5                    8.75                    6.25
    98   1  -1.2                     2.5                    8.75                    8.75
    99   1  -1.2                     2.5                    6.25                    8.75
   100   1  -1.2                     2.5                    6.25                    6.25
   101   1  -1.2                    1.25                       5                    6.25
   102   1  -1.2                    3.75                       5                    6.25
   103   1  -1.2                    3.75                       5                    8.75
   104   1  -1.2                    1.25                       5                    8.75
   105   1  -1.2                    3.75                    8.75                       5
   106   1  -1.2                    3.75                    6.25                       5
   107   1  -1.2                    1.25                    6.25                       5
   108   1  -1.2                    1.25                    8.75                       5
   109   1  -1.2                       0                    8.75                    8.75
   110   1  -1.2                       0                    8.75                    6.25
   111   1  -1.2                       0                    6.25                    6.25
   112   1  -1.2                       0                    6.25                    8.75
   113   2   2.4                       5                       0                       0
   114   2   2.4                       5                     2.5                     2.5
   115   2   2.4                     7.5                       0                     2.5
   116   2   2.4                     7.5                     2.5                       0
   117   1  -1.2                    6.25                     2.5                    3.75
   118   1  -1.2                    8.75                     2.5                    3.75
   119   1  -1.2                    8.75                     2.5                    1.25
   120   1  -1.2                    6.25                     2.5                    1.25
   121   1  -1.2                    8.75                    1.25                     2.5
   122   1  -1.2                    8.75                    3.75                     2.5
   123   1  -1.2                    6.25                    3.75                     2.5
   124   1  -1.2                    6.25                    1.25                     2.5
   125   1  -1.2                     7.5                    3.75                    1.25
   126   1  -1.2                     7.5                    3.75                    3.75
   127   1  -1.2                     7.5                    1.25                    3.75
   128   1  -1.2                     7.5                    1.25                    1.25
   129   1  -1.2                    6.25                       0                    1.25
   130   1  -1.2                    8.75                       0                    1.25
   131   1  -1.2                    8.75                       0                    3.75
   132   1  -1.2                    6.25                       0                    3.75
   133   1  -1.2                    8.75                    3.75                       0
   134   1  -1.2                    8.75                    1.25                       0
   135   1  -1.2                    6.25                    1.25                       0
   136   1  -1.2                    6.25                    3.75                       0
   137   1  -1.2                       5                    3.75                    3.75
   138   1  -1.2                       5                    3.75                    1.25
   139   1  -1.2                       5                    1.25                    1.25
   140   1  -1.2                       5                    1.25                    3.75
   141   2   2.4                       5                       0                       5
   142   2   2.4                       5                     2.5                     7.5
   143   2   2.4                     7.5                       0                     7.5
   144   2   2.4                     7.5                     2.5                       5
   145   1  -1.2                    6.25                     2.5                    8.75
   146   1  -1.2                    8.75                     2.5                    8.75
   147   1  -1.2                    8.75                     2.5                    6.25
   148   1  -1.2                    6.25                     2.5                    6.25
   149   1  -1.2                    8.75                    1.25                     7.5
   150   1  -1.2                    8.75                    3.75                     7.5
   151   1  -1.2                    6.25                    3.75                     7.5
   152   1  -1.2                    6.25                    1.25                     7.5
   153   1  -1.2                     7.5                    3.75                    6.25
   154   1  -1.2                     7.5                    3.75                    8.75
   155   1  -1.2                     7.5                    1.25                    8.75
   156   1  -1.2                     7.5                    1.25                    6.25
   157   1  -1.2                    6.25                       0                    6.25
   158   1  -1.2                    8.75                       0                    6.25
   159   1  -1.2                    8.75                       0                    8.75
   160   1  -1.2                    6.25                       0                    8.75
   161   1  -1.2                    8.75                    3.75                       5
   162   1  -1.2                    8.75                    1.25                       5
   163   1  -1.2                    6.25                    1.25                       5
   164   1  -1.2                    6.25                    3.75                       5
   165   1  -1.2                       5                    3.75                    8.75
   166   1  -1.2                       5                    3.75                    6.25
   167   1  -1.2                       5                    1.25                    6.25
   168   1  -1.2                       5                    1.25                    8.75
   169   2   2.4                       5                       5                       0
   170   2   2.4                       5                     7.5                     2.5
   171   2   2.4                     7.5                       5                     2.5
   172   2   2.4                     7.5                     7.5                       0
   173   1  -1.2                    6.25                     7.5                    3.75
   174   1  -1.2                    8.75                     7.5                    3.75
   175   1  -1.2                    8.75                     7.5                    1.25
   176   1  -1.2                    6.25                     7.5                    1.25
   177   1  -1.2                    8.75                    6.25                     2.5
   178   1  -1.2                    8.75                    8.75                     2.5
   179   1  -1.2                    6.25                    8.75                     2.5
   180   1  -1.2                    6.25                    6.25                     2.5
   181   1  -1.2                     7.5                    8.75                    1.25
   182   1  -1.2                     7.5                    8.75                    3.75
   183   1  -1.2                     7.5                    6.25                    3.75
   184   1  -1.2                     7.5                    6.25                    1.25
   185   1  -1.2                    6.25                       5                    1.25
   186   1  -1.2                    8.75                       5                    1.25
   187   1  -1.2                    8.75                       5                    3.75
   188   1  -1.2                    6.25                       5                    3.75
   189   1  -1.2                    8.75                    8.75                       0
   190   1  -1.2                    8.75                    6.25                       0
   191   1  -1.2                    6.25                    6.25                       0
   192   1  -1.2                    6.25                    8.75                       0
   193   1  -1.2                       5                    8.75                    3.75
   194   1  -1.2                       5                    8.75                    1.25
   195   1  -1.2                       5                    6.25                    1.25
   196   1  -1.2                       5                    6.25                    3.75
   197   2   2.4                       5                       5                       5
   198   2   2.4                       5                     7.5                     7.5
   199   2   2.4                     7.5                       5                     7.5
   200   2   2.4                     7.5                     7.5                       5
   201   1  -1.2                    6.25                     7.5                    8.75
   202   1  -1.2                    8.75                     7.5                    8.75
   203   1  -1.2                    8.75                     7.5                    6.25
   204   1  -1.2                    6.25                     7.5                    6.25
   205   1  -1.2                    8.75                    6.25                     7.5
   206   1  -1.2                    8.75                    8.75                     7.5
   207   1  -1.2                    6.25                    8.75                     7.5
   208   1  -1.2                    6.25                    6.25                     7.5
   209   1  -1.2                     7.5                    8.75                    6.25
   210   1  -1.2                     7.5                    8.75                    8.75
   211   1  -1.2                     7.5                    6.25                    8.75
   212   1  -1.2                     7.5                    6.25                    6.25
   213   1  -1.2                    6.25                       5                    6.25
   214   1  -1.2                    8.75                       5                    6.25
   215   1  -1.2                    8.75                       5                    8.75
   216   1  -1.2                    6.25                       5                    8.75
   217   1  -1.2                    8.75                    8.75                       5
   218   1  -1.2                    8.75                    6.25                       5
   219   1  -1.2                    6.25                    6.25                       5
   220   1  -1.2                    6.25                    8.75                       5
   221   1  -1.2                       5                    8.75                    8.75
   222   1  -1.2                       5                    8.75                    6.25
   223   1  -1.2                       5                    6.25                    6.25
   224   1  -1.2                       5                    6.25                    8.75
