ITEM: TIMESTEP
0
ITEM: NUMBER OF ATOMS
224
ITEM: BOX BOUNDS pp pp pp
0.0000000000000000e+00 1.0000000000000000e+01
0.0000000000000000e+00 1.0000000000000000e+01
0.0000000000000000e+00 1.0000000000000000e+01
ITEM: ATOMS id type x y z
1 2 0 0 0
2 2 0 2.5 2.5
3 2 2.5 0 2.5
4 2 2.5 2.5 0
5 1 1.25 2.5 3.75
6 1 3.75 2.5 3.75
7 1 3.75 2.5 1.25
8 1 1.25 2.5 1.25
9 1 3.75 1.25 2.5
10 1 3.75 3.75 2.5
11 1 1.25 3.75 2.5
12 1 1.25 1.25 2.5
13 1 2.5 3.75 1.25
14 1 2.5 3.75 3.75
15 1 2.5 1.25 3.75
16 1 2.5 1.25 1.25
17 1 1.25 0 1.25
18 1 3.75 0 1.25
19 1 3.75 0 3.75
20 1 1.25 0 3.75
21 1 3.75 3.75 0
22 1 3.75 1.25 0
23 1 1.25 1.25 0
24 1 1.25 3.75 0
25 1 0 3.75 3.75
26 1 0 3.75 1.25
27 1 0 1.25 1.25
28 1 0 1.25 3.75
29 2 0 0 5
30 2 0 2.5 7.5
31 2 2.5 0 7.5
32 2 2.5 2.5 5
33 1 1.25 2.5 8.75
34 1 3.75 2.5 8.75
35 1 3.75 2.5 6.25
36 1 1.25 2.5 6.25
37 1 3.75 1.25 7.5
38 1 3.75 3.75 7.5
39 1 1.25 3.75 7.5
40 1 1.25 1.25 7.5
41 1 2.5 3.75 6.25
42 1 2.5 3.75 8.75
43 1 2.5 1.25 8.75
44 1 2.5 1.25 6.25
45 1 1.25 0 6.25
46 1 3.75 0 6.25
47 1 3.75 0 8.75
48 1 1.25 0 8.75
49 1 3.75 3.75 5
50 1 3.75 1.25 5
51 1 1.25 1.25 5
52 1 1.25 3.75 5
53 1 0 3.75 8.75
54 1 0 3.75 6.25
55 1 0 1.25 6.25
56 1 0 1.25 8.75
57 2 0 5 0
58 2 0 7.5 2.5
59 2 2.5 5 2.5
60 2 2.5 7.5 0
61 1 1.25 7.5 3.75
62 1 3.75 7.5 3.75
63 1 3.75 7.5 1.25
64 1 1.25 7.5 1.25
65 1 3.75 6.25 2.5
66 1 3.75 8.75 2.5
67 1 1.25 8.75 2.5
68 1 1.25 6.25 2.5
69 1 2.5 8.75 1.25
70 1 2.5 8.75 3.75
71 1 2.5 6.25 3.75
72 1 2.5 6.25 1.25
73 1 1.25 5 1.25
74 1 3.75 5 1.25
75 1 3.75 5 3.75
76 1 1.25 5 3.75
77 1 3.75 8.75 0
78 1 3.75 6.25 0
79 1 1.25 6.25 0
80 1 1.25 8.75 0
81 1 0 8.75 3.75
82 1 0 8.75 1.25
83 1 0 6.25 1.25
84 1 0 6.25 3.75
85 2 0 5 5
86 2 0 7.5 7.5
87 2 2.5 5 7.5
88 2 2.5 7.5 5
89 1 1.25 7.5 8.75
90 1 3.75 7.5 8.75
91 1 3.75 7.5 6.25
92 1 1.25 7.5 6.25
93 1 3.75 6.25 7.5
94 1 3.75 8.75 7.5
95 1 1.25 8.75 7.5
96 1 1.25 6.25 7.5
97 1 2.5 8.75 6.25
98 1 2.5 8.75 8.75
99 1 2.5 6.25 8.75
100 1 2.5 6.25 6.25
101 1 1.25 5 6.25
102 1 3.75 5 6.25
103 1 3.75 5 8.75
104 1 1.25 5 8.75
105 1 3.75 8.75 5
106 1 3.75 6.25 5
107 1 1.25 6.25 5
108 1 1.25 8.75 5
109 1 0 8.75 8.75
110 1 0 8.75 6.25
111 1 0 6.25 6.25
112 1 0 6.25 8.75
113 2 5 0 0
114 2 5 2.5 2.5
115 2 7.5 0 2.5
116 2 7.5 2.5 0
117 1 6.25 2.5 3.75
118 1 8.75 2.5 3.75
119 1 8.75 2.5 1.25
120 1 6.25 2.5 1.25
121 1 8.75 1.25 2.5
122 1 8.75 3.75 2.5
123 1 6.25 3.75 2.5
124 1 6.25 1.25 2.5
125 1 7.5 3.75 1.25
126 1 7.5 3.75 3.75
127 1 7.5 1.25 3.75
128 1 7.5 1.25 1.25
129 1 6.25 0 1.25
130 1 8.75 0 1.25
131 1 8.75 0 3.75
132 1 6.25 0 3.75
133 1 8.75 3.75 0
134 1 8.75 1.25 0
135 1 6.25 1.25 0
136 1 6.25 3.75 0
137 1 5 3.75 3.75
138 1 5 3.75 1.25
139 1 5 1.25 1.25
140 1 5 1.25 3.75
141 2 5 0 5
142 2 5 2.5 7.5
143 2 7.5 0 7.5
144 2 7.5 2.5 5
145 1 6.25 2.5 8.75
146 1 8.75 2.5 8.75
147 1 8.75 2.5 6.25
148 1 6.25 2.5 6.25
149 1 8.75 1.25 7.5
150 1 8.75 3.75 7.5
151 1 6.25 3.75 7.5
152 1 6.25 1.25 7.5
153 1 7.5 3.75 6.25
154 1 7.5 3.75 8.75
155 1 7.5 1.25 8.75
156 1 7.5 1.25 6.25
157 1 6.25 0 6.25
158 1 8.75 0 6.25
159 1 8.75 0 8.75
160 1 6.25 0 8.75
161 1 8.75 3.75 5
162 1 8.75 1.25 5
163 1 6.25 1.25 5
164 1 6.25 3.75 5
165 1 5 3.75 8.75
166 1 5 3.75 6.25
167 1 5 1.25 6.25
168 1 5 1.25 8.75
169 2 5 5 0
170 2 5 7.5 2.5
171 2 7.5 5 2.5
172 2 7.5 7.5 0
173 1 6.25 7.5 3.75
174 1 8.75 7.5 3.75
175 1 8.75 7.5 1.25
176 1 6.25 7.5 1.25
177 1 8.75 6.25 2.5
178 1 8.75 8.75 2.5
179 1 6.25 8.75 2.5
180 1 6.25 6.25 2.5
181 1 7.5 8.75 1.25
182 1 7.5 8.75 3.75
183 1 7.5 6.25 3.75
184 1 7.5 6.25 1.25
185 1 6.25 5 1.25
186 1 8.75 5 1.25
187 1 8.75 5 3.75
188 1 6.25 5 3.75
189 1 8.75 8.75 0
190 1 8.75 6.25 0
191 1 6.25 6.25 0
192 1 6.25 8.75 0
193 1 5 8.75 3.75
194 1 5 8.75 1.25
195 1 5 6.25 1.25
196 1 5 6.25 3.75
197 2 5 5 5
198 2 5 7.5 7.5
199 2 7.5 5 7.5
200 2 7.5 7.5 5
201 1 6.25 7.5 8.75
202 1 8.75 7.5 8.75
203 1 8.75 7.5 6.25
204 1 6.25 7.5 6.25
205 1 8.75 6.25 7.5
206 1 8.75 8.75 7.5
207 1 6.25 8.75 7.5
208 1 6.25 6.25 7.5
209 1 7.5 8.75 6.25
210 1 7.5 8.75 8.75
211 1 7.5 6.25 8.75
212 1 7.5 6.25 6.25
213 1 6.25 5 6.25
214 1 8.75 5 6.25
215 1 8.75 5 8.75
216 1 6.25 5 8.75
217 1 8.75 8.75 5
218 1 8.75 6.25 5
219 1 6.25 6.25 5
220 1 6.25 8.75 5
221 1 5 8.75 8.75
222 1 5 8.75 6.25
223 1 5 6.25 6.25
224 1 5 6.25 8.75
ITEM: TIMESTEP
1000
ITEM: NUMBER OF ATOMS
224
ITEM: BOX BOUNDS pp pp pp
0.0000000000000000e+00 1.0000000000000000e+01
0.0000000000000000e+00 1.0000000000000000e+01
0.0000000000000000e+00 1.0000000000000000e+01
ITEM: ATOMS id type x y z
1 2 9.87979 9.04147 9.53212
2 2 0.042679 3.99993 1.90826
3 2 2.60412 8.03639 2.90277
4 2 2.43352 4.31695 0.410737
5 1 0.809139 1.81308 4.79234
6 1 2.17105 3.12431 5.1077
7 1 4.31386 1.68101 0.628376
8 1 0.482721 1.95727 1.44143
9 1 4.44017 2.19688 4.62308
10 1 3.77775 3.37409 2.71978
11 1 1.74858 3.61053 3.28948
12 1 -0.0962619 2.61427 2.81843
13 1 1.47617 4.42907 1.94586
14 1 1.73827 4.75831 4.25108
15 1 2.69939 1.80435 3.32803
16 1 3.19363 9.26954 2.29944
17 1 2.33253 1.06703 1.79267
18 1 3.51537 0.758245 9.95328
19 1 4.28396 8.71794 3.49488
20 1 2.26882 9.52822 3.74957
21 1 3.85331 4.05362 0.372745
22 1 2.66697 2.82727 9.58071
23 1 2.61045 2.95652 1.39519
24 1 1.10483 3.54946 0.608653
25 1 -0.025042 3.94762 3.46045
26 1 9.0921 4.14995 0.535566
27 1 9.42794 9.89992 0.946982
28 1 0.790947 9.30841 3.89633
29 2 0.313487 8.05539 4.43864
30 2 10.0567 4.29967 7.11557
31 2 2.36246 8.58778 7.87246
32 2 2.40601 4.42094 5.89249
33 1 1.20465 1.77972 9.213
34 1 2.466 1.37496 6.52013
35 1 3.84004 3.00027 6.47591
36 1 9.53359 3.16634 6.40954
37 1 4.2494 3.65772 8.3437
38 1 3.29231 4.49514 7.33587
39 1 2.28382 4.17228 8.73209
40 1 0.939475 2.98681 8.33195
41 1 1.48113 4.36776 7.22929
42 1 1.57669 5.12543 9.33586
43 1 2.51631 10.1086 8.70408
44 1 5.52277 0.86248 5.70129
45 1 1.3094 0.0627659 6.47322
46 1 4.46126 9.50415 5.53441
47 1 4.88642 9.77714 9.1753
48 1 1.22259 9.64541 8.50259
49 1 4.12005 4.74629 5.98155
50 1 2.67287 0.660983 5.06807
51 1 1.23921 3.35009 6.63022
52 1 0.641012 4.45376 5.60561
53 1 9.96085 4.33035 8.77031
54 1 9.79361 5.59334 6.28482
55 1 9.89083 1.1107 6.34681
56 1 9.80235 0.723708 8.81809
57 2 0.0734559 5.74984 9.40057
58 2 0.196978 6.91425 1.98932
59 2 2.43484 5.29562 2.9995
60 2 2.55102 7.20631 0.305698
61 1 1.84279 7.58032 4.10043
62 1 3.05195 6.59081 3.56548
63 1 4.33015 6.53714 0.414874
64 1 1.59621 7.559 1.61171
65 1 4.88393 5.66152 2.85738
66 1 3.86479 7.52607 1.32754
67 1 1.47643 9.49437 2.3213
68 1 1.55262 6.24657 1.87703
69 1 2.48444 8.73758 0.838183
70 1 3.32138 8.12868 4.5117
71 1 1.03179 6.38057 3.29048
72 1 2.96926 6.65476 2.04598
73 1 0.724416 4.778 0.721496
74 1 2.50661 5.47381 1.29505
75 1 3.8348 4.90366 3.40546
76 1 0.789521 5.00964 3.02744
77 1 4.08212 8.0086 0.0475709
78 1 2.81221 5.73708 9.69555
79 1 1.53889 6.44141 9.17818
80 1 0.930286 9.91448 0.112963
81 1 0.933841 7.94126 2.92273
82 1 0.45194 8.124 0.795707
83 1 0.794163 6.47258 0.680288
84 1 9.62449 6.71827 3.54381
85 2 0.125718 5.455 4.47234
86 2 9.92073 7.15784 7.05112
87 2 2.34594 5.58473 8.02882
88 2 2.56189 7.07253 5.65264
89 1 1.48921 8.03053 9.1759
90 1 4.09079 8.48097 8.02298
91 1 4.38657 7.89857 5.99526
92 1 1.08222 7.19548 6.11507
93 1 3.52973 6.00614 7.12363
94 1 3.40088 9.90101 7.53733
95 1 0.899461 8.46657 7.2371
96 1 1.93109 7.16499 7.59
97 1 2.79088 8.37741 6.40063
98 1 2.89124 8.36164 9.3777
99 1 2.93475 7.06711 8.55181
100 1 3.23397 7.25456 7.06884
101 1 1.1589 5.83648 6.86979
102 1 2.47314 5.63105 6.47772
103 1 3.71656 5.20337 8.93697
104 1 0.8078 5.25313 8.13246
105 1 3.84406 6.80924 4.42725
106 1 3.1706 5.57564 4.96429
107 1 1.71634 5.67661 5.14065
108 1 1.79062 8.28941 5.61518
109 1 9.86037 8.07787 8.3523
110 1 9.99597 8.27253 5.98949
111 1 1.10831 6.73142 4.8653
112 1 0.461953 6.68667 8.33119
113 2 5.44386 8.30544 9.66042
114 2 5.23381 4.2853 2.40525
115 2 7.56341 8.1397 3.04726
116 2 7.65261 3.29246 0.78392
117 1 5.84359 3.3834 3.39792
118 1 7.01263 2.72272 3.68276
119 1 8.70812 2.76321 1.75087
120 1 4.93272 4.26974 0.85323
121 1 9.0623 1.68926 4.62892
122 1 8.58034 4.13822 1.87947
123 1 7.55842 4.18255 3.28569
124 1 5.17654 2.70421 2.09354
125 1 6.68889 3.84633 2.03277
126 1 7.32966 5.24851 3.96498
127 1 7.7608 9.53504 3.61624
128 1 9.05499 0.926632 2.84424
129 1 6.8376 9.58823 2.77606
130 1 8.32 9.56938 9.96903
131 1 9.06236 8.36904 3.60026
132 1 5.95421 8.09771 3.0275
133 1 8.71569 2.65819 9.54016
134 1 8.00683 1.83061 0.54581
135 1 6.88353 1.60043 1.81747
136 1 6.25972 4.04123 0.597523
137 1 3.4589 4.26134 4.56489
138 1 3.60295 4.81064 1.99746
139 1 5.12817 9.66827 1.31702
140 1 4.83435 1.17155 3.02586
141 2 4.99917 8.04477 4.55071
142 2 5.16771 4.37827 7.20858
143 2 7.32648 8.54393 7.82405
144 2 6.74734 3.85002 4.76204
145 1 6.28387 2.19761 0.246383
146 1 7.10569 3.48127 9.35598
147 1 7.78742 2.75269 5.35256
148 1 5.36628 2.79246 7.07296
149 1 8.88761 2.40024 7.72346
150 1 8.38313 4.3096 6.72635
151 1 6.59195 4.40414 7.72979
152 1 6.9403 2.31259 7.74734
153 1 6.3433 4.31984 6.18392
154 1 7.23237 5.66408 9.27061
155 1 7.96173 0.484068 6.43968
156 1 7.37228 8.72767 6.35542
157 1 6.31628 9.67037 7.47934
158 1 9.5875 9.527 4.69832
159 1 8.60527 9.60753 8.44767
160 1 7.50777 0.423031 8.56391
161 1 8.88626 4.34077 4.818
162 1 7.12737 1.007 4.78729
163 1 6.23654 2.66156 5.24745
164 1 5.21074 4.06617 5.29169
165 1 5.43315 4.05804 8.76999
166 1 4.16939 6.75553 5.52849
167 1 5.50306 9.48019 4.13793
168 1 4.84507 1.43086 8.32925
169 2 5.11141 5.34981 9.71013
170 2 5.21556 6.83952 1.86219
171 2 7.91933 5.5028 2.41967
172 2 7.9285 6.77318 9.95684
173 1 6.68423 6.94744 3.73004
174 1 8.46098 6.85359 2.07159
175 1 8.74531 7.68292 0.759111
176 1 6.58143 7.71294 0.375244
177 1 9.57861 5.5366 2.00514
178 1 9.41235 8.38634 2.28148
179 1 6.68097 6.99918 2.33868
180 1 6.39083 5.38334 2.16303
181 1 7.50896 8.97481 1.56438
182 1 8.13714 7.87314 4.73137
183 1 8.12321 6.85018 3.49236
184 1 7.43478 6.32065 1.2594
185 1 4.86941 5.62433 1.28896
186 1 7.49069 4.7884 1.08053
187 1 9.26875 5.18092 3.2487
188 1 5.55193 4.74316 3.89402
189 1 9.5601 7.284 9.77192
190 1 9.0877 5.82807 0.81219
191 1 6.18562 6.69104 9.31409
192 1 6.02369 -0.219775 9.842
193 1 4.11525 7.43826 2.80951
194 1 5.76785 8.01674 1.40049
195 1 6.12894 6.26227 0.462196
196 1 5.25962 6.81741 3.56821
197 2 4.7015 5.56458 4.67146
198 2 4.84752 7.02952 7.13413
199 2 7.56211 5.51398 7.64402
200 2 7.53749 6.50824 5.0909
201 1 6.83806 8.55153 9.20579
202 1 8.67279 7.01617 7.85504
203 1 8.59167 6.21864 6.37435
204 1 5.84128 6.90021 5.37074
205 1 9.26706 5.58123 7.96638
206 1 8.83161 8.51579 7.10063
207 1 6.47092 7.15448 7.51867
208 1 7.41792 6.99757 8.54252
209 1 7.81003 7.29329 6.72354
210 1 8.36584 8.10476 9.13806
211 1 8.613 5.47865 9.16701
212 1 6.80417 5.95315 6.43707
213 1 5.91431 5.72939 7.58922
214 1 7.5361 4.92089 5.49291
215 1 8.36474 4.24449 8.13021
216 1 4.81467 5.76997 8.16265
217 1 9.30441 7.0886 5.45534
218 1 8.74088 5.87537 4.66679
219 1 6.27052 5.60764 4.68079
220 1 6.6655 8.41363 4.52103
221 1 5.56325 8.20293 8.15881
222 1 5.80034 8.10645 6.29301
223 1 5.12679 5.62486 6.316
224 1 4.86601 6.95344 8.98638
