ITEM: TIMESTEP
0
ITEM: NUMBER OF ATOMS
4000
ITEM: BOX BOUNDS pp pp pp
0.0000000000000000e+00 3.6100000000000001e+01
0.0000000000000000e+00 3.6100000000000001e+01
0.0000000000000000e+00 3.6100000000000001e+01
ITEM: ATOMS id type x y z
1 1 0 0 0
2 1 1.805 1.805 0
3 1 1.805 0 1.805
4 1 0 1.805 1.805
5 1 3.61 0 0
6 1 5.415 1.805 0
7 1 5.415 0 1.805
8 1 3.61 1.805 1.805
9 1 7.22 0 0
12 1 7.22 1.805 1.805
10 1 9.025 1.805 0
11 1 9.025 0 1.805
13 1 10.83 0 0
16 1 10.83 1.805 1.805
14 1 12.635 1.805 0
15 1 12.635 0 1.805
17 1 14.44 0 0
20 1 14.44 1.805 1.805
18 1 16.245 1.805 0
19 1 16.245 0 1.805
21 1 18.05 0 0
22 1 19.855 1.805 0
23 1 19.855 0 1.805
24 1 18.05 1.805 1.805
25 1 21.66 0 0
26 1 23.465 1.805 0
27 1 23.465 0 1.805
28 1 21.66 1.805 1.805
29 1 25.27 0 0
32 1 25.27 1.805 1.805
30 1 27.075 1.805 0
31 1 27.075 0 1.805
33 1 28.88 0 0
36 1 28.88 1.805 1.805
34 1 30.685 1.805 0
35 1 30.685 0 1.805
37 1 32.49 0 0
40 1 32.49 1.805 1.805
38 1 34.295 1.805 0
39 1 34.295 0 1.805
41 1 0 3.61 0
42 1 1.805 5.415 0
43 1 1.805 3.61 1.805
44 1 0 5.415 1.805
45 1 3.61 3.61 0
46 1 5.415 5.415 0
47 1 5.415 3.61 1.805
48 1 3.61 5.415 1.805
49 1 7.22 3.61 0
52 1 7.22 5.415 1.805
50 1 9.025 5.415 0
51 1 9.025 3.61 1.805
53 1 10.83 3.61 0
56 1 10.83 5.415 1.805
54 1 12.635 5.415 0
55 1 12.635 3.61 1.805
57 1 14.44 3.61 0
60 1 14.44 5.415 1.805
58 1 16.245 5.415 0
59 1 16.245 3.61 1.805
61 1 18.05 3.61 0
62 1 19.855 5.415 0
63 1 19.855 3.61 1.805
64 1 18.05 5.415 1.805
65 1 21.66 3.61 0
66 1 23.465 5.415 0
67 1 23.465 3.61 1.805
68 1 21.66 5.415 1.805
69 1 25.27 3.61 0
72 1 25.27 5.415 1.805
70 1 27.075 5.415 0
71 1 27.075 3.61 1.805
73 1 28.88 3.61 0
76 1 28.88 5.415 1.805
74 1 30.685 5.415 0
75 1 30.685 3.61 1.805
77 1 32.49 3.61 0
80 1 32.49 5.415 1.805
78 1 34.295 5.415 0
79 1 34.295 3.61 1.805
81 1 0 7.22 0
83 1 1.805 7.22 1.805
85 1 3.61 7.22 0
87 1 5.415 7.22 1.805
89 1 7.22 7.22 0
91 1 9.025 7.22 1.805
93 1 10.83 7.22 0
95 1 12.635 7.22 1.805
97 1 14.44 7.22 0
99 1 16.245 7.22 1.805
101 1 18.05 7.22 0
103 1 19.855 7.22 1.805
105 1 21.66 7.22 0
107 1 23.465 7.22 1.805
109 1 25.27 7.22 0
111 1 27.075 7.22 1.805
113 1 28.88 7.22 0
115 1 30.685 7.22 1.805
117 1 32.49 7.22 0
119 1 34.295 7.22 1.805
82 1 1.805 9.025 0
84 1 0 9.025 1.805
121 1 0 10.83 0
123 1 1.805 10.83 1.805
86 1 5.415 9.025 0
88 1 3.61 9.025 1.805
125 1 3.61 10.83 0
127 1 5.415 10.83 1.805
92 1 7.22 9.025 1.805
129 1 7.22 10.83 0
90 1 9.025 9.025 0
96 1 10.83 9.025 1.805
131 1 9.025 10.83 1.805
133 1 10.83 10.83 0
94 1 12.635 9.025 0
100 1 14.44 9.025 1.805
135 1 12.635 10.83 1.805
137 1 14.44 10.83 0
98 1 16.245 9.025 0
139 1 16.245 10.83 1.805
102 1 19.855 9.025 0
104 1 18.05 9.025 1.805
141 1 18.05 10.83 0
143 1 19.855 10.83 1.805
106 1 23.465 9.025 0
108 1 21.66 9.025 1.805
145 1 21.66 10.83 0
147 1 23.465 10.83 1.805
112 1 25.27 9.025 1.805
149 1 25.27 10.83 0
110 1 27.075 9.025 0
116 1 28.88 9.025 1.805
151 1 27.075 10.83 1.805
153 1 28.88 10.83 0
114 1 30.685 9.025 0
120 1 32.49 9.025 1.805
155 1 30.685 10.83 1.805
157 1 32.49 10.83 0
118 1 34.295 9.025 0
159 1 34.295 10.83 1.805
122 1 1.805 12.635 0
124 1 0 12.635 1.805
161 1 0 14.44 0
163 1 1.805 14.44 1.805
126 1 5.415 12.635 0
128 1 3.61 12.635 1.805
165 1 3.61 14.44 0
167 1 5.415 14.44 1.805
132 1 7.22 12.635 1.805
169 1 7.22 14.44 0
130 1 9.025 12.635 0
136 1 10.83 12.635 1.805
171 1 9.025 14.44 1.805
173 1 10.83 14.44 0
134 1 12.635 12.635 0
140 1 14.44 12.635 1.805
175 1 12.635 14.44 1.805
177 1 14.44 14.44 0
138 1 16.245 12.635 0
179 1 16.245 14.44 1.805
142 1 19.855 12.635 0
144 1 18.05 12.635 1.805
181 1 18.05 14.44 0
183 1 19.855 14.44 1.805
146 1 23.465 12.635 0
148 1 21.66 12.635 1.805
185 1 21.66 14.44 0
187 1 23.465 14.44 1.805
152 1 25.27 12.635 1.805
189 1 25.27 14.44 0
150 1 27.075 12.635 0
156 1 28.88 12.635 1.805
191 1 27.075 14.44 1.805
193 1 28.88 14.44 0
154 1 30.685 12.635 0
160 1 32.49 12.635 1.805
195 1 30.685 14.44 1.805
197 1 32.49 14.44 0
158 1 34.295 12.635 0
199 1 34.295 14.44 1.805
162 1 1.805 16.245 0
164 1 0 16.245 1.805
166 1 5.415 16.245 0
168 1 3.61 16.245 1.805
172 1 7.22 16.245 1.805
170 1 9.025 16.245 0
176 1 10.83 16.245 1.805
174 1 12.635 16.245 0
180 1 14.44 16.245 1.805
178 1 16.245 16.245 0
182 1 19.855 16.245 0
184 1 18.05 16.245 1.805
186 1 23.465 16.245 0
188 1 21.66 16.245 1.805
192 1 25.27 16.245 1.805
190 1 27.075 16.245 0
196 1 28.88 16.245 1.805
194 1 30.685 16.245 0
200 1 32.49 16.245 1.805
198 1 34.295 16.245 0
201 1 0 18.05 0
202 1 1.805 19.855 0
203 1 1.805 18.05 1.805
204 1 0 19.855 1.805
205 1 3.61 18.05 0
206 1 5.415 19.855 0
207 1 5.415 18.05 1.805
208 1 3.61 19.855 1.805
209 1 7.22 18.05 0
212 1 7.22 19.855 1.805
210 1 9.025 19.855 0
211 1 9.025 18.05 1.805
213 1 10.83 18.05 0
216 1 10.83 19.855 1.805
214 1 12.635 19.855 0
215 1 12.635 18.05 1.805
217 1 14.44 18.05 0
220 1 14.44 19.855 1.805
218 1 16.245 19.855 0
219 1 16.245 18.05 1.805
221 1 18.05 18.05 0
222 1 19.855 19.855 0
223 1 19.855 18.05 1.805
224 1 18.05 19.855 1.805
225 1 21.66 18.05 0
226 1 23.465 19.855 0
227 1 23.465 18.05 1.805
228 1 21.66 19.855 1.805
229 1 25.27 18.05 0
232 1 25.27 19.855 1.805
230 1 27.075 19.855 0
231 1 27.075 18.05 1.805
233 1 28.88 18.05 0
236 1 28.88 19.855 1.805
234 1 30.685 19.855 0
235 1 30.685 18.05 1.805
237 1 32.49 18.05 0
240 1 32.49 19.855 1.805
238 1 34.295 19.855 0
239 1 34.295 18.05 1.805
241 1 0 21.66 0
242 1 1.805 23.465 0
243 1 1.805 21.66 1.805
244 1 0 23.465 1.805
245 1 3.61 21.66 0
246 1 5.415 23.465 0
247 1 5.415 21.66 1.805
248 1 3.61 23.465 1.805
249 1 7.22 21.66 0
252 1 7.22 23.465 1.805
250 1 9.025 23.465 0
251 1 9.025 21.66 1.805
253 1 10.83 21.66 0
256 1 10.83 23.465 1.805
254 1 12.635 23.465 0
255 1 12.635 21.66 1.805
257 1 14.44 21.66 0
260 1 14.44 23.465 1.805
258 1 16.245 23.465 0
259 1 16.245 21.66 1.805
261 1 18.05 21.66 0
262 1 19.855 23.465 0
263 1 19.855 21.66 1.805
264 1 18.05 23.465 1.805
265 1 21.66 21.66 0
266 1 23.465 23.465 0
267 1 23.465 21.66 1.805
268 1 21.66 23.465 1.805
269 1 25.27 21.66 0
272 1 25.27 23.465 1.805
270 1 27.075 23.465 0
271 1 27.075 21.66 1.805
273 1 28.88 21.66 0
276 1 28.88 23.465 1.805
274 1 30.685 23.465 0
275 1 30.685 21.66 1.805
277 1 32.49 21.66 0
280 1 32.49 23.465 1.805
278 1 34.295 23.465 0
279 1 34.295 21.66 1.805
281 1 0 25.27 0
283 1 1.805 25.27 1.805
285 1 3.61 25.27 0
287 1 5.415 25.27 1.805
289 1 7.22 25.27 0
291 1 9.025 25.27 1.805
293 1 10.83 25.27 0
295 1 12.635 25.27 1.805
297 1 14.44 25.27 0
299 1 16.245 25.27 1.805
301 1 18.05 25.27 0
303 1 19.855 25.27 1.805
305 1 21.66 25.27 0
307 1 23.465 25.27 1.805
309 1 25.27 25.27 0
311 1 27.075 25.27 1.805
313 1 28.88 25.27 0
315 1 30.685 25.27 1.805
317 1 32.49 25.27 0
319 1 34.295 25.27 1.805
282 1 1.805 27.075 0
284 1 0 27.075 1.805
321 1 0 28.88 0
323 1 1.805 28.88 1.805
286 1 5.415 27.075 0
288 1 3.61 27.075 1.805
325 1 3.61 28.88 0
327 1 5.415 28.88 1.805
292 1 7.22 27.075 1.805
329 1 7.22 28.88 0
290 1 9.025 27.075 0
296 1 10.83 27.075 1.805
331 1 9.025 28.88 1.805
333 1 10.83 28.88 0
294 1 12.635 27.075 0
300 1 14.44 27.075 1.805
335 1 12.635 28.88 1.805
337 1 14.44 28.88 0
298 1 16.245 27.075 0
339 1 16.245 28.88 1.805
302 1 19.855 27.075 0
304 1 18.05 27.075 1.805
341 1 18.05 28.88 0
343 1 19.855 28.88 1.805
306 1 23.465 27.075 0
308 1 21.66 27.075 1.805
345 1 21.66 28.88 0
347 1 23.465 28.88 1.805
312 1 25.27 27.075 1.805
349 1 25.27 28.88 0
310 1 27.075 27.075 0
316 1 28.88 27.075 1.805
351 1 27.075 28.88 1.805
353 1 28.88 28.88 0
314 1 30.685 27.075 0
320 1 32.49 27.075 1.805
355 1 30.685 28.88 1.805
357 1 32.49 28.88 0
318 1 34.295 27.075 0
359 1 34.295 28.88 1.805
322 1 1.805 30.685 0
324 1 0 30.685 1.805
361 1 0 32.49 0
363 1 1.805 32.49 1.805
326 1 5.415 30.685 0
328 1 3.61 30.685 1.805
365 1 3.61 32.49 0
367 1 5.415 32.49 1.805
332 1 7.22 30.685 1.805
369 1 7.22 32.49 0
330 1 9.025 30.685 0
336 1 10.83 30.685 1.805
371 1 9.025 32.49 1.805
373 1 10.83 32.49 0
334 1 12.635 30.685 0
340 1 14.44 30.685 1.805
375 1 12.635 32.49 1.805
377 1 14.44 32.49 0
338 1 16.245 30.685 0
379 1 16.245 32.49 1.805
342 1 19.855 30.685 0
344 1 18.05 30.685 1.805
381 1 18.05 32.49 0
383 1 19.855 32.49 1.805
346 1 23.465 30.685 0
348 1 21.66 30.685 1.805
385 1 21.66 32.49 0
387 1 23.465 32.49 1.805
352 1 25.27 30.685 1.805
389 1 25.27 32.49 0
350 1 27.075 30.685 0
356 1 28.88 30.685 1.805
391 1 27.075 32.49 1.805
393 1 28.88 32.49 0
354 1 30.685 30.685 0
360 1 32.49 30.685 1.805
395 1 30.685 32.49 1.805
397 1 32.49 32.49 0
358 1 34.295 30.685 0
399 1 34.295 32.49 1.805
362 1 1.805 34.295 0
364 1 0 34.295 1.805
366 1 5.415 34.295 0
368 1 3.61 34.295 1.805
372 1 7.22 34.295 1.805
370 1 9.025 34.295 0
376 1 10.83 34.295 1.805
374 1 12.635 34.295 0
380 1 14.44 34.295 1.805
378 1 16.245 34.295 0
382 1 19.855 34.295 0
384 1 18.05 34.295 1.805
386 1 23.465 34.295 0
388 1 21.66 34.295 1.805
392 1 25.27 34.295 1.805
390 1 27.075 34.295 0
396 1 28.88 34.295 1.805
394 1 30.685 34.295 0
400 1 32.49 34.295 1.805
398 1 34.295 34.295 0
401 1 0 0 3.61
402 1 1.805 1.805 3.61
403 1 1.805 0 5.415
404 1 0 1.805 5.415
405 1 3.61 0 3.61
406 1 5.415 1.805 3.61
407 1 5.415 0 5.415
408 1 3.61 1.805 5.415
409 1 7.22 0 3.61
412 1 7.22 1.805 5.415
410 1 9.025 1.805 3.61
411 1 9.025 0 5.415
413 1 10.83 0 3.61
416 1 10.83 1.805 5.415
414 1 12.635 1.805 3.61
415 1 12.635 0 5.415
417 1 14.44 0 3.61
420 1 14.44 1.805 5.415
418 1 16.245 1.805 3.61
419 1 16.245 0 5.415
421 1 18.05 0 3.61
422 1 19.855 1.805 3.61
423 1 19.855 0 5.415
424 1 18.05 1.805 5.415
425 1 21.66 0 3.61
426 1 23.465 1.805 3.61
427 1 23.465 0 5.415
428 1 21.66 1.805 5.415
429 1 25.27 0 3.61
432 1 25.27 1.805 5.415
430 1 27.075 1.805 3.61
431 1 27.075 0 5.415
433 1 28.88 0 3.61
436 1 28.88 1.805 5.415
434 1 30.685 1.805 3.61
435 1 30.685 0 5.415
437 1 32.49 0 3.61
440 1 32.49 1.805 5.415
438 1 34.295 1.805 3.61
439 1 34.295 0 5.415
441 1 0 3.61 3.61
442 1 1.805 5.415 3.61
443 1 1.805 3.61 5.415
444 1 0 5.415 5.415
445 1 3.61 3.61 3.61
446 1 5.415 5.415 3.61
447 1 5.415 3.61 5.415
448 1 3.61 5.415 5.415
449 1 7.22 3.61 3.61
452 1 7.22 5.415 5.415
450 1 9.025 5.415 3.61
451 1 9.025 3.61 5.415
453 1 10.83 3.61 3.61
456 1 10.83 5.415 5.415
454 1 12.635 5.415 3.61
455 1 12.635 3.61 5.415
457 1 14.44 3.61 3.61
460 1 14.44 5.415 5.415
458 1 16.245 5.415 3.61
459 1 16.245 3.61 5.415
461 1 18.05 3.61 3.61
462 1 19.855 5.415 3.61
463 1 19.855 3.61 5.415
464 1 18.05 5.415 5.415
465 1 21.66 3.61 3.61
466 1 23.465 5.415 3.61
467 1 23.465 3.61 5.415
468 1 21.66 5.415 5.415
469 1 25.27 3.61 3.61
472 1 25.27 5.415 5.415
470 1 27.075 5.415 3.61
471 1 27.075 3.61 5.415
473 1 28.88 3.61 3.61
476 1 28.88 5.415 5.415
474 1 30.685 5.415 3.61
475 1 30.685 3.61 5.415
477 1 32.49 3.61 3.61
480 1 32.49 5.415 5.415
478 1 34.295 5.415 3.61
479 1 34.295 3.61 5.415
481 1 0 7.22 3.61
483 1 1.805 7.22 5.415
485 1 3.61 7.22 3.61
487 1 5.415 7.22 5.415
489 1 7.22 7.22 3.61
491 1 9.025 7.22 5.415
493 1 10.83 7.22 3.61
495 1 12.635 7.22 5.415
497 1 14.44 7.22 3.61
499 1 16.245 7.22 5.415
501 1 18.05 7.22 3.61
503 1 19.855 7.22 5.415
505 1 21.66 7.22 3.61
507 1 23.465 7.22 5.415
509 1 25.27 7.22 3.61
511 1 27.075 7.22 5.415
513 1 28.88 7.22 3.61
515 1 30.685 7.22 5.415
517 1 32.49 7.22 3.61
519 1 34.295 7.22 5.415
482 1 1.805 9.025 3.61
484 1 0 9.025 5.415
521 1 0 10.83 3.61
523 1 1.805 10.83 5.415
486 1 5.415 9.025 3.61
488 1 3.61 9.025 5.415
525 1 3.61 10.83 3.61
527 1 5.415 10.83 5.415
492 1 7.22 9.025 5.415
529 1 7.22 10.83 3.61
490 1 9.025 9.025 3.61
496 1 10.83 9.025 5.415
531 1 9.025 10.83 5.415
533 1 10.83 10.83 3.61
494 1 12.635 9.025 3.61
500 1 14.44 9.025 5.415
535 1 12.635 10.83 5.415
537 1 14.44 10.83 3.61
498 1 16.245 9.025 3.61
539 1 16.245 10.83 5.415
502 1 19.855 9.025 3.61
504 1 18.05 9.025 5.415
541 1 18.05 10.83 3.61
543 1 19.855 10.83 5.415
506 1 23.465 9.025 3.61
508 1 21.66 9.025 5.415
545 1 21.66 10.83 3.61
547 1 23.465 10.83 5.415
512 1 25.27 9.025 5.415
549 1 25.27 10.83 3.61
510 1 27.075 9.025 3.61
516 1 28.88 9.025 5.415
551 1 27.075 10.83 5.415
553 1 28.88 10.83 3.61
514 1 30.685 9.025 3.61
520 1 32.49 9.025 5.415
555 1 30.685 10.83 5.415
557 1 32.49 10.83 3.61
518 1 34.295 9.025 3.61
559 1 34.295 10.83 5.415
522 1 1.805 12.635 3.61
524 1 0 12.635 5.415
561 1 0 14.44 3.61
563 1 1.805 14.44 5.415
526 1 5.415 12.635 3.61
528 1 3.61 12.635 5.415
565 1 3.61 14.44 3.61
567 1 5.415 14.44 5.415
532 1 7.22 12.635 5.415
569 1 7.22 14.44 3.61
530 1 9.025 12.635 3.61
536 1 10.83 12.635 5.415
571 1 9.025 14.44 5.415
573 1 10.83 14.44 3.61
534 1 12.635 12.635 3.61
540 1 14.44 12.635 5.415
575 1 12.635 14.44 5.415
577 1 14.44 14.44 3.61
538 1 16.245 12.635 3.61
579 1 16.245 14.44 5.415
542 1 19.855 12.635 3.61
544 1 18.05 12.635 5.415
581 1 18.05 14.44 3.61
583 1 19.855 14.44 5.415
546 1 23.465 12.635 3.61
548 1 21.66 12.635 5.415
585 1 21.66 14.44 3.61
587 1 23.465 14.44 5.415
552 1 25.27 12.635 5.415
589 1 25.27 14.44 3.61
550 1 27.075 12.635 3.61
556 1 28.88 12.635 5.415
591 1 27.075 14.44 5.415
593 1 28.88 14.44 3.61
554 1 30.685 12.635 3.61
560 1 32.49 12.635 5.415
595 1 30.685 14.44 5.415
597 1 32.49 14.44 3.61
558 1 34.295 12.635 3.61
599 1 34.295 14.44 5.415
562 1 1.805 16.245 3.61
564 1 0 16.245 5.415
566 1 5.415 16.245 3.61
568 1 3.61 16.245 5.415
572 1 7.22 16.245 5.415
570 1 9.025 16.245 3.61
576 1 10.83 16.245 5.415
574 1 12.635 16.245 3.61
580 1 14.44 16.245 5.415
578 1 16.245 16.245 3.61
582 1 19.855 16.245 3.61
584 1 18.05 16.245 5.415
586 1 23.465 16.245 3.61
588 1 21.66 16.245 5.415
592 1 25.27 16.245 5.415
590 1 27.075 16.245 3.61
596 1 28.88 16.245 5.415
594 1 30.685 16.245 3.61
600 1 32.49 16.245 5.415
598 1 34.295 16.245 3.61
601 1 0 18.05 3.61
602 1 1.805 19.855 3.61
603 1 1.805 18.05 5.415
604 1 0 19.855 5.415
605 1 3.61 18.05 3.61
606 1 5.415 19.855 3.61
607 1 5.415 18.05 5.415
608 1 3.61 19.855 5.415
609 1 7.22 18.05 3.61
612 1 7.22 19.855 5.415
610 1 9.025 19.855 3.61
611 1 9.025 18.05 5.415
613 1 10.83 18.05 3.61
616 1 10.83 19.855 5.415
614 1 12.635 19.855 3.61
615 1 12.635 18.05 5.415
617 1 14.44 18.05 3.61
620 1 14.44 19.855 5.415
618 1 16.245 19.855 3.61
619 1 16.245 18.05 5.415
621 1 18.05 18.05 3.61
622 1 19.855 19.855 3.61
623 1 19.855 18.05 5.415
624 1 18.05 19.855 5.415
625 1 21.66 18.05 3.61
626 1 23.465 19.855 3.61
627 1 23.465 18.05 5.415
628 1 21.66 19.855 5.415
629 1 25.27 18.05 3.61
632 1 25.27 19.855 5.415
630 1 27.075 19.855 3.61
631 1 27.075 18.05 5.415
633 1 28.88 18.05 3.61
636 1 28.88 19.855 5.415
634 1 30.685 19.855 3.61
635 1 30.685 18.05 5.415
637 1 32.49 18.05 3.61
640 1 32.49 19.855 5.415
638 1 34.295 19.855 3.61
639 1 34.295 18.05 5.415
641 1 0 21.66 3.61
642 1 1.805 23.465 3.61
643 1 1.805 21.66 5.415
644 1 0 23.465 5.415
645 1 3.61 21.66 3.61
646 1 5.415 23.465 3.61
647 1 5.415 21.66 5.415
648 1 3.61 23.465 5.415
649 1 7.22 21.66 3.61
652 1 7.22 23.465 5.415
650 1 9.025 23.465 3.61
651 1 9.025 21.66 5.415
653 1 10.83 21.66 3.61
656 1 10.83 23.465 5.415
654 1 12.635 23.465 3.61
655 1 12.635 21.66 5.415
657 1 14.44 21.66 3.61
660 1 14.44 23.465 5.415
658 1 16.245 23.465 3.61
659 1 16.245 21.66 5.415
661 1 18.05 21.66 3.61
662 1 19.855 23.465 3.61
663 1 19.855 21.66 5.415
664 1 18.05 23.465 5.415
665 1 21.66 21.66 3.61
666 1 23.465 23.465 3.61
667 1 23.465 21.66 5.415
668 1 21.66 23.465 5.415
669 1 25.27 21.66 3.61
672 1 25.27 23.465 5.415
670 1 27.075 23.465 3.61
671 1 27.075 21.66 5.415
673 1 28.88 21.66 3.61
676 1 28.88 23.465 5.415
674 1 30.685 23.465 3.61
675 1 30.685 21.66 5.415
677 1 32.49 21.66 3.61
680 1 32.49 23.465 5.415
678 1 34.295 23.465 3.61
679 1 34.295 21.66 5.415
681 1 0 25.27 3.61
683 1 1.805 25.27 5.415
685 1 3.61 25.27 3.61
687 1 5.415 25.27 5.415
689 1 7.22 25.27 3.61
691 1 9.025 25.27 5.415
693 1 10.83 25.27 3.61
695 1 12.635 25.27 5.415
697 1 14.44 25.27 3.61
699 1 16.245 25.27 5.415
701 1 18.05 25.27 3.61
703 1 19.855 25.27 5.415
705 1 21.66 25.27 3.61
707 1 23.465 25.27 5.415
709 1 25.27 25.27 3.61
711 1 27.075 25.27 5.415
713 1 28.88 25.27 3.61
715 1 30.685 25.27 5.415
717 1 32.49 25.27 3.61
719 1 34.295 25.27 5.415
682 1 1.805 27.075 3.61
684 1 0 27.075 5.415
721 1 0 28.88 3.61
723 1 1.805 28.88 5.415
686 1 5.415 27.075 3.61
688 1 3.61 27.075 5.415
725 1 3.61 28.88 3.61
727 1 5.415 28.88 5.415
692 1 7.22 27.075 5.415
729 1 7.22 28.88 3.61
690 1 9.025 27.075 3.61
696 1 10.83 27.075 5.415
731 1 9.025 28.88 5.415
733 1 10.83 28.88 3.61
694 1 12.635 27.075 3.61
700 1 14.44 27.075 5.415
735 1 12.635 28.88 5.415
737 1 14.44 28.88 3.61
698 1 16.245 27.075 3.61
739 1 16.245 28.88 5.415
702 1 19.855 27.075 3.61
704 1 18.05 27.075 5.415
741 1 18.05 28.88 3.61
743 1 19.855 28.88 5.415
706 1 23.465 27.075 3.61
708 1 21.66 27.075 5.415
745 1 21.66 28.88 3.61
747 1 23.465 28.88 5.415
712 1 25.27 27.075 5.415
749 1 25.27 28.88 3.61
710 1 27.075 27.075 3.61
716 1 28.88 27.075 5.415
751 1 27.075 28.88 5.415
753 1 28.88 28.88 3.61
714 1 30.685 27.075 3.61
720 1 32.49 27.075 5.415
755 1 30.685 28.88 5.415
757 1 32.49 28.88 3.61
718 1 34.295 27.075 3.61
759 1 34.295 28.88 5.415
722 1 1.805 30.685 3.61
724 1 0 30.685 5.415
761 1 0 32.49 3.61
763 1 1.805 32.49 5.415
726 1 5.415 30.685 3.61
728 1 3.61 30.685 5.415
765 1 3.61 32.49 3.61
767 1 5.415 32.49 5.415
732 1 7.22 30.685 5.415
769 1 7.22 32.49 3.61
730 1 9.025 30.685 3.61
736 1 10.83 30.685 5.415
771 1 9.025 32.49 5.415
773 1 10.83 32.49 3.61
734 1 12.635 30.685 3.61
740 1 14.44 30.685 5.415
775 1 12.635 32.49 5.415
777 1 14.44 32.49 3.61
738 1 16.245 30.685 3.61
779 1 16.245 32.49 5.415
742 1 19.855 30.685 3.61
744 1 18.05 30.685 5.415
781 1 18.05 32.49 3.61
783 1 19.855 32.49 5.415
746 1 23.465 30.685 3.61
748 1 21.66 30.685 5.415
785 1 21.66 32.49 3.61
787 1 23.465 32.49 5.415
752 1 25.27 30.685 5.415
789 1 25.27 32.49 3.61
750 1 27.075 30.685 3.61
756 1 28.88 30.685 5.415
791 1 27.075 32.49 5.415
793 1 28.88 32.49 3.61
754 1 30.685 30.685 3.61
760 1 32.49 30.685 5.415
795 1 30.685 32.49 5.415
797 1 32.49 32.49 3.61
758 1 34.295 30.685 3.61
799 1 34.295 32.49 5.415
762 1 1.805 34.295 3.61
764 1 0 34.295 5.415
766 1 5.415 34.295 3.61
768 1 3.61 34.295 5.415
772 1 7.22 34.295 5.415
770 1 9.025 34.295 3.61
776 1 10.83 34.295 5.415
774 1 12.635 34.295 3.61
780 1 14.44 34.295 5.415
778 1 16.245 34.295 3.61
782 1 19.855 34.295 3.61
784 1 18.05 34.295 5.415
786 1 23.465 34.295 3.61
788 1 21.66 34.295 5.415
792 1 25.27 34.295 5.415
790 1 27.075 34.295 3.61
796 1 28.88 34.295 5.415
794 1 30.685 34.295 3.61
800 1 32.49 34.295 5.415
798 1 34.295 34.295 3.61
801 1 0 0 7.22
802 1 1.805 1.805 7.22
805 1 3.61 0 7.22
806 1 5.415 1.805 7.22
809 1 7.22 0 7.22
810 1 9.025 1.805 7.22
813 1 10.83 0 7.22
814 1 12.635 1.805 7.22
817 1 14.44 0 7.22
818 1 16.245 1.805 7.22
821 1 18.05 0 7.22
822 1 19.855 1.805 7.22
825 1 21.66 0 7.22
826 1 23.465 1.805 7.22
829 1 25.27 0 7.22
830 1 27.075 1.805 7.22
833 1 28.88 0 7.22
834 1 30.685 1.805 7.22
837 1 32.49 0 7.22
838 1 34.295 1.805 7.22
841 1 0 3.61 7.22
842 1 1.805 5.415 7.22
845 1 3.61 3.61 7.22
846 1 5.415 5.415 7.22
849 1 7.22 3.61 7.22
850 1 9.025 5.415 7.22
853 1 10.83 3.61 7.22
854 1 12.635 5.415 7.22
857 1 14.44 3.61 7.22
858 1 16.245 5.415 7.22
861 1 18.05 3.61 7.22
862 1 19.855 5.415 7.22
865 1 21.66 3.61 7.22
866 1 23.465 5.415 7.22
869 1 25.27 3.61 7.22
870 1 27.075 5.415 7.22
873 1 28.88 3.61 7.22
874 1 30.685 5.415 7.22
877 1 32.49 3.61 7.22
878 1 34.295 5.415 7.22
881 1 0 7.22 7.22
885 1 3.61 7.22 7.22
889 1 7.22 7.22 7.22
893 1 10.83 7.22 7.22
897 1 14.44 7.22 7.22
901 1 18.05 7.22 7.22
905 1 21.66 7.22 7.22
909 1 25.27 7.22 7.22
913 1 28.88 7.22 7.22
917 1 32.49 7.22 7.22
882 1 1.805 9.025 7.22
921 1 0 10.83 7.22
886 1 5.415 9.025 7.22
925 1 3.61 10.83 7.22
929 1 7.22 10.83 7.22
890 1 9.025 9.025 7.22
933 1 10.83 10.83 7.22
894 1 12.635 9.025 7.22
937 1 14.44 10.83 7.22
898 1 16.245 9.025 7.22
902 1 19.855 9.025 7.22
941 1 18.05 10.83 7.22
906 1 23.465 9.025 7.22
945 1 21.66 10.83 7.22
949 1 25.27 10.83 7.22
910 1 27.075 9.025 7.22
953 1 28.88 10.83 7.22
914 1 30.685 9.025 7.22
957 1 32.49 10.83 7.22
918 1 34.295 9.025 7.22
922 1 1.805 12.635 7.22
961 1 0 14.44 7.22
926 1 5.415 12.635 7.22
965 1 3.61 14.44 7.22
969 1 7.22 14.44 7.22
930 1 9.025 12.635 7.22
973 1 10.83 14.44 7.22
934 1 12.635 12.635 7.22
977 1 14.44 14.44 7.22
938 1 16.245 12.635 7.22
942 1 19.855 12.635 7.22
981 1 18.05 14.44 7.22
946 1 23.465 12.635 7.22
985 1 21.66 14.44 7.22
989 1 25.27 14.44 7.22
950 1 27.075 12.635 7.22
993 1 28.88 14.44 7.22
954 1 30.685 12.635 7.22
997 1 32.49 14.44 7.22
958 1 34.295 12.635 7.22
962 1 1.805 16.245 7.22
966 1 5.415 16.245 7.22
970 1 9.025 16.245 7.22
974 1 12.635 16.245 7.22
978 1 16.245 16.245 7.22
982 1 19.855 16.245 7.22
986 1 23.465 16.245 7.22
990 1 27.075 16.245 7.22
994 1 30.685 16.245 7.22
998 1 34.295 16.245 7.22
1001 1 0 18.05 7.22
1002 1 1.805 19.855 7.22
1005 1 3.61 18.05 7.22
1006 1 5.415 19.855 7.22
1009 1 7.22 18.05 7.22
1010 1 9.025 19.855 7.22
1013 1 10.83 18.05 7.22
1014 1 12.635 19.855 7.22
1017 1 14.44 18.05 7.22
1018 1 16.245 19.855 7.22
1021 1 18.05 18.05 7.22
1022 1 19.855 19.855 7.22
1025 1 21.66 18.05 7.22
1026 1 23.465 19.855 7.22
1029 1 25.27 18.05 7.22
1030 1 27.075 19.855 7.22
1033 1 28.88 18.05 7.22
1034 1 30.685 19.855 7.22
1037 1 32.49 18.05 7.22
1038 1 34.295 19.855 7.22
1041 1 0 21.66 7.22
1042 1 1.805 23.465 7.22
1045 1 3.61 21.66 7.22
1046 1 5.415 23.465 7.22
1049 1 7.22 21.66 7.22
1050 1 9.025 23.465 7.22
1053 1 10.83 21.66 7.22
1054 1 12.635 23.465 7.22
1057 1 14.44 21.66 7.22
1058 1 16.245 23.465 7.22
1061 1 18.05 21.66 7.22
1062 1 19.855 23.465 7.22
1065 1 21.66 21.66 7.22
1066 1 23.465 23.465 7.22
1069 1 25.27 21.66 7.22
1070 1 27.075 23.465 7.22
1073 1 28.88 21.66 7.22
1074 1 30.685 23.465 7.22
1077 1 32.49 21.66 7.22
1078 1 34.295 23.465 7.22
1081 1 0 25.27 7.22
1085 1 3.61 25.27 7.22
1089 1 7.22 25.27 7.22
1093 1 10.83 25.27 7.22
1097 1 14.44 25.27 7.22
1101 1 18.05 25.27 7.22
1105 1 21.66 25.27 7.22
1109 1 25.27 25.27 7.22
1113 1 28.88 25.27 7.22
1117 1 32.49 25.27 7.22
1082 1 1.805 27.075 7.22
1121 1 0 28.88 7.22
1086 1 5.415 27.075 7.22
1125 1 3.61 28.88 7.22
1129 1 7.22 28.88 7.22
1090 1 9.025 27.075 7.22
1133 1 10.83 28.88 7.22
1094 1 12.635 27.075 7.22
1137 1 14.44 28.88 7.22
1098 1 16.245 27.075 7.22
1102 1 19.855 27.075 7.22
1141 1 18.05 28.88 7.22
1106 1 23.465 27.075 7.22
1145 1 21.66 28.88 7.22
1149 1 25.27 28.88 7.22
1110 1 27.075 27.075 7.22
1153 1 28.88 28.88 7.22
1114 1 30.685 27.075 7.22
1157 1 32.49 28.88 7.22
1118 1 34.295 27.075 7.22
1122 1 1.805 30.685 7.22
1161 1 0 32.49 7.22
1126 1 5.415 30.685 7.22
1165 1 3.61 32.49 7.22
1169 1 7.22 32.49 7.22
1130 1 9.025 30.685 7.22
1173 1 10.83 32.49 7.22
1134 1 12.635 30.685 7.22
1177 1 14.44 32.49 7.22
1138 1 16.245 30.685 7.22
1142 1 19.855 30.685 7.22
1181 1 18.05 32.49 7.22
1146 1 23.465 30.685 7.22
1185 1 21.66 32.49 7.22
1189 1 25.27 32.49 7.22
1150 1 27.075 30.685 7.22
1193 1 28.88 32.49 7.22
1154 1 30.685 30.685 7.22
1197 1 32.49 32.49 7.22
1158 1 34.295 30.685 7.22
1162 1 1.805 34.295 7.22
1166 1 5.415 34.295 7.22
1170 1 9.025 34.295 7.22
1174 1 12.635 34.295 7.22
1178 1 16.245 34.295 7.22
1182 1 19.855 34.295 7.22
1186 1 23.465 34.295 7.22
1190 1 27.075 34.295 7.22
1194 1 30.685 34.295 7.22
1198 1 34.295 34.295 7.22
803 1 1.805 0 9.025
804 1 0 1.805 9.025
1201 1 0 0 10.83
1202 1 1.805 1.805 10.83
807 1 5.415 0 9.025
808 1 3.61 1.805 9.025
1205 1 3.61 0 10.83
1206 1 5.415 1.805 10.83
812 1 7.22 1.805 9.025
1209 1 7.22 0 10.83
811 1 9.025 0 9.025
816 1 10.83 1.805 9.025
1210 1 9.025 1.805 10.83
1213 1 10.83 0 10.83
815 1 12.635 0 9.025
820 1 14.44 1.805 9.025
1214 1 12.635 1.805 10.83
1217 1 14.44 0 10.83
819 1 16.245 0 9.025
1218 1 16.245 1.805 10.83
823 1 19.855 0 9.025
824 1 18.05 1.805 9.025
1221 1 18.05 0 10.83
1222 1 19.855 1.805 10.83
827 1 23.465 0 9.025
828 1 21.66 1.805 9.025
1225 1 21.66 0 10.83
1226 1 23.465 1.805 10.83
832 1 25.27 1.805 9.025
1229 1 25.27 0 10.83
831 1 27.075 0 9.025
836 1 28.88 1.805 9.025
1230 1 27.075 1.805 10.83
1233 1 28.88 0 10.83
835 1 30.685 0 9.025
840 1 32.49 1.805 9.025
1234 1 30.685 1.805 10.83
1237 1 32.49 0 10.83
839 1 34.295 0 9.025
1238 1 34.295 1.805 10.83
843 1 1.805 3.61 9.025
844 1 0 5.415 9.025
1241 1 0 3.61 10.83
1242 1 1.805 5.415 10.83
847 1 5.415 3.61 9.025
848 1 3.61 5.415 9.025
1245 1 3.61 3.61 10.83
1246 1 5.415 5.415 10.83
852 1 7.22 5.415 9.025
1249 1 7.22 3.61 10.83
851 1 9.025 3.61 9.025
856 1 10.83 5.415 9.025
1250 1 9.025 5.415 10.83
1253 1 10.83 3.61 10.83
855 1 12.635 3.61 9.025
860 1 14.44 5.415 9.025
1254 1 12.635 5.415 10.83
1257 1 14.44 3.61 10.83
859 1 16.245 3.61 9.025
1258 1 16.245 5.415 10.83
863 1 19.855 3.61 9.025
864 1 18.05 5.415 9.025
1261 1 18.05 3.61 10.83
1262 1 19.855 5.415 10.83
867 1 23.465 3.61 9.025
868 1 21.66 5.415 9.025
1265 1 21.66 3.61 10.83
1266 1 23.465 5.415 10.83
872 1 25.27 5.415 9.025
1269 1 25.27 3.61 10.83
871 1 27.075 3.61 9.025
876 1 28.88 5.415 9.025
1270 1 27.075 5.415 10.83
1273 1 28.88 3.61 10.83
875 1 30.685 3.61 9.025
880 1 32.49 5.415 9.025
1274 1 30.685 5.415 10.83
1277 1 32.49 3.61 10.83
879 1 34.295 3.61 9.025
1278 1 34.295 5.415 10.83
883 1 1.805 7.22 9.025
1281 1 0 7.22 10.83
887 1 5.415 7.22 9.025
1285 1 3.61 7.22 10.83
1289 1 7.22 7.22 10.83
891 1 9.025 7.22 9.025
1293 1 10.83 7.22 10.83
895 1 12.635 7.22 9.025
1297 1 14.44 7.22 10.83
899 1 16.245 7.22 9.025
903 1 19.855 7.22 9.025
1301 1 18.05 7.22 10.83
907 1 23.465 7.22 9.025
1305 1 21.66 7.22 10.83
1309 1 25.27 7.22 10.83
911 1 27.075 7.22 9.025
1313 1 28.88 7.22 10.83
915 1 30.685 7.22 9.025
1317 1 32.49 7.22 10.83
919 1 34.295 7.22 9.025
884 1 0 9.025 9.025
923 1 1.805 10.83 9.025
1282 1 1.805 9.025 10.83
1321 1 0 10.83 10.83
888 1 3.61 9.025 9.025
927 1 5.415 10.83 9.025
1286 1 5.415 9.025 10.83
1325 1 3.61 10.83 10.83
892 1 7.22 9.025 9.025
1329 1 7.22 10.83 10.83
896 1 10.83 9.025 9.025
931 1 9.025 10.83 9.025
1290 1 9.025 9.025 10.83
1333 1 10.83 10.83 10.83
900 1 14.44 9.025 9.025
935 1 12.635 10.83 9.025
1294 1 12.635 9.025 10.83
1337 1 14.44 10.83 10.83
939 1 16.245 10.83 9.025
1298 1 16.245 9.025 10.83
904 1 18.05 9.025 9.025
943 1 19.855 10.83 9.025
1302 1 19.855 9.025 10.83
1341 1 18.05 10.83 10.83
908 1 21.66 9.025 9.025
947 1 23.465 10.83 9.025
1306 1 23.465 9.025 10.83
1345 1 21.66 10.83 10.83
912 1 25.27 9.025 9.025
1349 1 25.27 10.83 10.83
916 1 28.88 9.025 9.025
951 1 27.075 10.83 9.025
1310 1 27.075 9.025 10.83
1353 1 28.88 10.83 10.83
920 1 32.49 9.025 9.025
955 1 30.685 10.83 9.025
1314 1 30.685 9.025 10.83
1357 1 32.49 10.83 10.83
959 1 34.295 10.83 9.025
1318 1 34.295 9.025 10.83
924 1 0 12.635 9.025
963 1 1.805 14.44 9.025
1322 1 1.805 12.635 10.83
1361 1 0 14.44 10.83
928 1 3.61 12.635 9.025
967 1 5.415 14.44 9.025
1326 1 5.415 12.635 10.83
1365 1 3.61 14.44 10.83
932 1 7.22 12.635 9.025
1369 1 7.22 14.44 10.83
936 1 10.83 12.635 9.025
971 1 9.025 14.44 9.025
1330 1 9.025 12.635 10.83
1373 1 10.83 14.44 10.83
940 1 14.44 12.635 9.025
975 1 12.635 14.44 9.025
1334 1 12.635 12.635 10.83
1377 1 14.44 14.44 10.83
979 1 16.245 14.44 9.025
1338 1 16.245 12.635 10.83
944 1 18.05 12.635 9.025
983 1 19.855 14.44 9.025
1342 1 19.855 12.635 10.83
1381 1 18.05 14.44 10.83
948 1 21.66 12.635 9.025
987 1 23.465 14.44 9.025
1346 1 23.465 12.635 10.83
1385 1 21.66 14.44 10.83
952 1 25.27 12.635 9.025
1389 1 25.27 14.44 10.83
956 1 28.88 12.635 9.025
991 1 27.075 14.44 9.025
1350 1 27.075 12.635 10.83
1393 1 28.88 14.44 10.83
960 1 32.49 12.635 9.025
995 1 30.685 14.44 9.025
1354 1 30.685 12.635 10.83
1397 1 32.49 14.44 10.83
999 1 34.295 14.44 9.025
1358 1 34.295 12.635 10.83
964 1 0 16.245 9.025
1362 1 1.805 16.245 10.83
968 1 3.61 16.245 9.025
1366 1 5.415 16.245 10.83
972 1 7.22 16.245 9.025
976 1 10.83 16.245 9.025
1370 1 9.025 16.245 10.83
980 1 14.44 16.245 9.025
1374 1 12.635 16.245 10.83
1378 1 16.245 16.245 10.83
984 1 18.05 16.245 9.025
1382 1 19.855 16.245 10.83
988 1 21.66 16.245 9.025
1386 1 23.465 16.245 10.83
992 1 25.27 16.245 9.025
996 1 28.88 16.245 9.025
1390 1 27.075 16.245 10.83
1000 1 32.49 16.245 9.025
1394 1 30.685 16.245 10.83
1398 1 34.295 16.245 10.83
1003 1 1.805 18.05 9.025
1004 1 0 19.855 9.025
1401 1 0 18.05 10.83
1402 1 1.805 19.855 10.83
1007 1 5.415 18.05 9.025
1008 1 3.61 19.855 9.025
1405 1 3.61 18.05 10.83
1406 1 5.415 19.855 10.83
1012 1 7.22 19.855 9.025
1409 1 7.22 18.05 10.83
1011 1 9.025 18.05 9.025
1016 1 10.83 19.855 9.025
1410 1 9.025 19.855 10.83
1413 1 10.83 18.05 10.83
1015 1 12.635 18.05 9.025
1020 1 14.44 19.855 9.025
1414 1 12.635 19.855 10.83
1417 1 14.44 18.05 10.83
1019 1 16.245 18.05 9.025
1418 1 16.245 19.855 10.83
1023 1 19.855 18.05 9.025
1024 1 18.05 19.855 9.025
1421 1 18.05 18.05 10.83
1422 1 19.855 19.855 10.83
1027 1 23.465 18.05 9.025
1028 1 21.66 19.855 9.025
1425 1 21.66 18.05 10.83
1426 1 23.465 19.855 10.83
1032 1 25.27 19.855 9.025
1429 1 25.27 18.05 10.83
1031 1 27.075 18.05 9.025
1036 1 28.88 19.855 9.025
1430 1 27.075 19.855 10.83
1433 1 28.88 18.05 10.83
1035 1 30.685 18.05 9.025
1040 1 32.49 19.855 9.025
1434 1 30.685 19.855 10.83
1437 1 32.49 18.05 10.83
1039 1 34.295 18.05 9.025
1438 1 34.295 19.855 10.83
1043 1 1.805 21.66 9.025
1044 1 0 23.465 9.025
1441 1 0 21.66 10.83
1442 1 1.805 23.465 10.83
1047 1 5.415 21.66 9.025
1048 1 3.61 23.465 9.025
1445 1 3.61 21.66 10.83
1446 1 5.415 23.465 10.83
1052 1 7.22 23.465 9.025
1449 1 7.22 21.66 10.83
1051 1 9.025 21.66 9.025
1056 1 10.83 23.465 9.025
1450 1 9.025 23.465 10.83
1453 1 10.83 21.66 10.83
1055 1 12.635 21.66 9.025
1060 1 14.44 23.465 9.025
1454 1 12.635 23.465 10.83
1457 1 14.44 21.66 10.83
1059 1 16.245 21.66 9.025
1458 1 16.245 23.465 10.83
1063 1 19.855 21.66 9.025
1064 1 18.05 23.465 9.025
1461 1 18.05 21.66 10.83
1462 1 19.855 23.465 10.83
1067 1 23.465 21.66 9.025
1068 1 21.66 23.465 9.025
1465 1 21.66 21.66 10.83
1466 1 23.465 23.465 10.83
1072 1 25.27 23.465 9.025
1469 1 25.27 21.66 10.83
1071 1 27.075 21.66 9.025
1076 1 28.88 23.465 9.025
1470 1 27.075 23.465 10.83
1473 1 28.88 21.66 10.83
1075 1 30.685 21.66 9.025
1080 1 32.49 23.465 9.025
1474 1 30.685 23.465 10.83
1477 1 32.49 21.66 10.83
1079 1 34.295 21.66 9.025